/*--------------------------------*- C++ -*----------------------------------*\
| =========                 |                                                 |
| \\      /  F ield         | OpenFOAM: The Open Source CFD Toolbox           |
|  \\    /   O peration     | Version:  2.4.0                                 |
|   \\  /    A nd           | Web:      www.OpenFOAM.org                      |
|    \\/     M anipulation  |                                                 |
\*---------------------------------------------------------------------------*/
FoamFile
{
    version     2.0;
    format      ascii;
    class       volScalarField;
    location    "2.3";
    object      p;
}
// * * * * * * * * * * * * * * * * * * * * * * * * * * * * * * * * * * * * * //

dimensions      [0 2 -2 0 0 0 0];

internalField   nonuniform List<scalar> 
400
(
2.00347e-06
-0.00582658
-0.0129648
-0.0184173
-0.020435
-0.0182414
-0.0117769
-0.00148672
0.0118344
0.0271464
0.0432418
0.0588206
0.0725763
0.0833062
0.0900505
0.0922646
0.0900235
0.0842415
0.0768782
0.0710647
0.0057795
-0.000219959
-0.00580604
-0.00954488
-0.0106015
-0.0084354
-0.00297275
0.00547125
0.0163
0.0287089
0.0417471
0.0543834
0.065584
0.0744076
0.0801179
0.0823134
0.0810748
0.0770523
0.0712716
0.0653153
0.0133335
0.0050318
-0.000997433
-0.00442544
-0.00527542
-0.00326656
0.0015996
0.00902475
0.0184992
0.0293464
0.0407626
0.051867
0.061766
0.0696339
0.0748046
0.0768756
0.0758391
0.0720833
0.0658028
0.0575328
0.0201377
0.00869404
0.00122372
-0.00267087
-0.00372462
-0.00188793
0.00272857
0.00978178
0.0187775
0.0290922
0.0399891
0.0506513
0.0602303
0.0679134
0.0730007
0.074999
0.0737632
0.0694535
0.0616002
0.0500997
0.0245003
0.00977119
0.000587657
-0.00398922
-0.0053047
-0.00350993
0.00117205
0.0083318
0.0174592
0.0279462
0.0390821
0.0500671
0.0600461
0.0681624
0.0736237
0.0757951
0.0743663
0.0692871
0.0595227
0.0445342
0.0251761
0.00714809
-0.00380411
-0.00905945
-0.0105146
-0.00850252
-0.00335946
0.0044267
0.0143106
0.0256762
0.037811
0.0499005
0.0610453
0.0703003
0.0767319
0.0795142
0.0781362
0.0723308
0.0605364
0.0418871
0.0210915
-0.000264381
-0.0129366
-0.0187115
-0.0200321
-0.0174164
-0.011321
-0.00232236
0.00898771
0.0219734
0.0359069
0.0499416
0.0631093
0.0743425
0.0825191
0.0865667
0.0857179
0.0794443
0.0656175
0.0430688
0.0111407
-0.0136203
-0.0278772
-0.0338564
-0.0346058
-0.0308599
-0.0232154
-0.0123478
0.00110218
0.0164812
0.0330498
0.0499309
0.0660806
0.0802871
0.0911979
0.0974273
0.0978675
0.0916333
0.0758935
0.0491137
-0.00596939
-0.0342687
-0.0498723
-0.0555509
-0.0550924
-0.0495169
-0.0395959
-0.0261158
-0.00975971
0.00882034
0.0288983
0.0495908
0.0697948
0.0881519
0.103045
0.112698
0.115548
0.110189
0.0928315
0.0614087
-0.0318595
-0.0638785
-0.0804193
-0.0850095
-0.0824224
-0.0740806
-0.0609833
-0.0440391
-0.023954
-0.00133949
0.023143
0.0486584
0.074093
0.0979696
0.118393
0.133123
0.139986
0.136815
0.118438
0.0819312
-0.0686697
-0.104606
-0.121347
-0.123592
-0.117518
-0.105129
-0.0877206
-0.0663279
-0.0416394
-0.0141581
0.015603
0.0469506
0.0788532
0.109791
0.137621
0.159583
0.172724
0.173776
0.155518
0.113568
-0.119405
-0.159359
-0.174917
-0.172759
-0.16115
-0.142931
-0.119761
-0.0927793
-0.0625797
-0.02945
0.00637073
0.0444711
0.0840527
0.123701
0.161134
0.193084
0.215666
0.224075
0.208048
0.16063
-0.188631
-0.232244
-0.243941
-0.23395
-0.213696
-0.187156
-0.156374
-0.122503
-0.0859
-0.0464743
-0.00401659
0.0415367
0.08984
0.139827
0.189317
0.234687
0.271072
0.291662
0.281741
0.229774
-0.283976
-0.329306
-0.331833
-0.308282
-0.27471
-0.236442
-0.195766
-0.153612
-0.109842
-0.0637469
-0.0144396
0.0388616
0.0965525
0.158275
0.222372
0.285286
0.341395
0.381573
0.384912
0.331832
-0.41932
-0.459673
-0.442352
-0.395793
-0.34213
-0.287741
-0.234617
-0.182931
-0.131611
-0.0789862
-0.0232153
0.037474
0.104552
0.178836
0.25986
0.344969
0.428615
0.499699
0.529674
0.48539
-0.620533
-0.636745
-0.578678
-0.494194
-0.411241
-0.335659
-0.267781
-0.205978
-0.147537
-0.0893837
-0.0284268
0.0383476
0.113806
0.200471
0.299974
0.412024
0.533029
0.651774
0.732771
0.722395
-0.935924
-0.878515
-0.741742
-0.597949
-0.474393
-0.372659
-0.288869
-0.217763
-0.153954
-0.0924642
-0.0287177
0.0416953
0.123263
0.220718
0.338926
0.482154
0.651996
0.841341
1.01527
1.0975
-1.47642
-1.20663
-0.920503
-0.691388
-0.517305
-0.387544
-0.290061
-0.213337
-0.148124
-0.0872156
-0.0245778
0.0454573
0.128937
0.233071
0.367103
0.542678
0.771293
1.05932
1.40329
1.73014
-2.53965
-1.63055
-1.04444
-0.710959
-0.49575
-0.352093
-0.254531
-0.183583
-0.126169
-0.0735952
-0.0192692
0.0427867
0.119212
0.218782
0.354812
0.547984
0.826393
1.23658
1.91168
2.92419
-4.36666
-2.04463
-0.973542
-0.56318
-0.357846
-0.240146
-0.170119
-0.123783
-0.0874813
-0.0535104
-0.0166546
0.0276604
0.0846072
0.161729
0.272411
0.442099
0.718219
1.22571
2.41103
4.84853
)
;

boundaryField
{
    movingWall
    {
        type            zeroGradient;
    }
    fixedWalls
    {
        type            zeroGradient;
    }
    frontAndBack
    {
        type            empty;
    }
}


// ************************************************************************* //
