/*--------------------------------*- C++ -*----------------------------------*\
| =========                 |                                                 |
| \\      /  F ield         | OpenFOAM: The Open Source CFD Toolbox           |
|  \\    /   O peration     | Version:  2.4.0                                 |
|   \\  /    A nd           | Web:      www.OpenFOAM.org                      |
|    \\/     M anipulation  |                                                 |
\*---------------------------------------------------------------------------*/
FoamFile
{
    version     2.0;
    format      ascii;
    class       volScalarField;
    location    "3.5";
    object      p;
}
// * * * * * * * * * * * * * * * * * * * * * * * * * * * * * * * * * * * * * //

dimensions      [0 2 -2 0 0 0 0];

internalField   nonuniform List<scalar> 
400
(
1.24743e-06
-0.00582787
-0.0129662
-0.0184187
-0.0204364
-0.0182428
-0.0117783
-0.00148813
0.011833
0.0271449
0.0432403
0.0588191
0.0725749
0.0833048
0.0900491
0.0922633
0.090022
0.08424
0.0768767
0.0710631
0.00577822
-0.000221315
-0.00580744
-0.00954633
-0.0106029
-0.00843684
-0.00297415
0.00546987
0.0162986
0.0287074
0.0417456
0.0543819
0.0655825
0.0744061
0.0801165
0.082312
0.0810735
0.0770509
0.0712701
0.0653138
0.0133321
0.00503043
-0.000998818
-0.00442687
-0.00527689
-0.00326804
0.00159816
0.00902336
0.0184978
0.029345
0.0407612
0.0518655
0.0617645
0.0696324
0.0748032
0.0768743
0.0758378
0.072082
0.0658014
0.0575313
0.0201363
0.00869265
0.00122235
-0.00267226
-0.00372606
-0.00188942
0.00272707
0.00978033
0.0187761
0.0290908
0.0399878
0.0506498
0.0602288
0.0679119
0.0729992
0.0749975
0.0737618
0.0694521
0.0615988
0.0500983
0.0244988
0.00976976
0.000586279
-0.00399058
-0.0053061
-0.0035114
0.00117053
0.00833029
0.0174577
0.0279448
0.0390808
0.0500657
0.0600447
0.0681609
0.0736222
0.0757936
0.0743649
0.0692857
0.0595214
0.0445328
0.0251746
0.00714663
-0.00380553
-0.00906081
-0.0105159
-0.00850392
-0.00336093
0.00442518
0.0143091
0.0256747
0.0378096
0.0498991
0.0610439
0.0702989
0.0767304
0.0795127
0.0781347
0.0723293
0.060535
0.0418857
0.0210901
-0.000265869
-0.0129381
-0.0187129
-0.0200335
-0.0174177
-0.0113224
-0.00232384
0.00898618
0.0219719
0.0359054
0.0499402
0.063108
0.0743411
0.0825177
0.0865652
0.0857164
0.0794428
0.0656161
0.0430674
0.0111393
-0.0136218
-0.0278787
-0.0338579
-0.0346072
-0.0308612
-0.0232167
-0.0123492
0.0011007
0.0164797
0.0330483
0.0499294
0.0660792
0.0802858
0.0911966
0.0974259
0.0978661
0.0916318
0.075892
0.0491122
-0.00597076
-0.0342702
-0.0498738
-0.0555524
-0.0550939
-0.0495183
-0.0395973
-0.0261172
-0.00976111
0.00881887
0.0288968
0.0495893
0.0697933
0.0881504
0.103043
0.112697
0.115546
0.110188
0.0928301
0.0614072
-0.0318608
-0.0638799
-0.0804207
-0.085011
-0.0824239
-0.0740821
-0.0609847
-0.0440404
-0.0239554
-0.00134089
0.0231415
0.0486569
0.0740915
0.0979682
0.118392
0.133122
0.139985
0.136814
0.118437
0.0819297
-0.0686711
-0.104607
-0.121348
-0.123594
-0.117519
-0.10513
-0.087722
-0.0663293
-0.0416408
-0.0141595
0.0156016
0.0469492
0.0788517
0.109789
0.13762
0.159582
0.172723
0.173774
0.155517
0.113567
-0.119406
-0.159361
-0.174919
-0.172761
-0.161152
-0.142933
-0.119763
-0.0927807
-0.0625811
-0.0294514
0.00636938
0.0444697
0.0840513
0.123699
0.161132
0.193082
0.215664
0.224073
0.208047
0.160629
-0.188632
-0.232246
-0.243942
-0.233951
-0.213698
-0.187158
-0.156376
-0.122505
-0.0859015
-0.0464757
-0.00401798
0.0415353
0.0898386
0.139826
0.189315
0.234686
0.271071
0.291661
0.281739
0.229772
-0.283978
-0.329308
-0.331835
-0.308283
-0.274712
-0.236443
-0.195768
-0.153613
-0.109843
-0.0637484
-0.0144411
0.0388602
0.0965511
0.158273
0.222371
0.285285
0.341394
0.381572
0.384911
0.331831
-0.419322
-0.459674
-0.442353
-0.395795
-0.342132
-0.287742
-0.234618
-0.182933
-0.131612
-0.0789877
-0.0232168
0.0374726
0.10455
0.178835
0.259859
0.344967
0.428613
0.499697
0.529672
0.485389
-0.620534
-0.636746
-0.578679
-0.494195
-0.411243
-0.33566
-0.267782
-0.20598
-0.147539
-0.0893852
-0.0284283
0.0383461
0.113805
0.200469
0.299973
0.412023
0.533027
0.651773
0.732769
0.722393
-0.935926
-0.878517
-0.741743
-0.59795
-0.474394
-0.372661
-0.28887
-0.217764
-0.153955
-0.0924656
-0.0287191
0.0416939
0.123262
0.220716
0.338924
0.482153
0.651995
0.84134
1.01527
1.0975
-1.47642
-1.20663
-0.920505
-0.691389
-0.517306
-0.387545
-0.290062
-0.213339
-0.148125
-0.087217
-0.0245792
0.0454559
0.128936
0.233069
0.367101
0.542676
0.771291
1.05932
1.40329
1.73014
-2.53965
-1.63055
-1.04444
-0.71096
-0.495752
-0.352094
-0.254532
-0.183584
-0.126171
-0.0735966
-0.0192706
0.0427853
0.119211
0.218781
0.35481
0.547982
0.826391
1.23658
1.91168
2.92419
-4.36667
-2.04464
-0.973543
-0.563182
-0.357847
-0.240148
-0.170121
-0.123784
-0.0874827
-0.0535118
-0.0166561
0.027659
0.0846058
0.161728
0.272409
0.442097
0.718217
1.22571
2.41103
4.84853
)
;

boundaryField
{
    movingWall
    {
        type            zeroGradient;
    }
    fixedWalls
    {
        type            zeroGradient;
    }
    frontAndBack
    {
        type            empty;
    }
}


// ************************************************************************* //
