/*--------------------------------*- C++ -*----------------------------------*\
| =========                 |                                                 |
| \\      /  F ield         | OpenFOAM: The Open Source CFD Toolbox           |
|  \\    /   O peration     | Version:  2.4.0                                 |
|   \\  /    A nd           | Web:      www.OpenFOAM.org                      |
|    \\/     M anipulation  |                                                 |
\*---------------------------------------------------------------------------*/
FoamFile
{
    version     2.0;
    format      ascii;
    class       volScalarField;
    location    "0.9";
    object      p;
}
// * * * * * * * * * * * * * * * * * * * * * * * * * * * * * * * * * * * * * //

dimensions      [0 2 -2 0 0 0 0];

internalField   nonuniform List<scalar> 
400
(
3.62774e-06
-0.00582383
-0.0129618
-0.0184143
-0.0204319
-0.0182383
-0.0117738
-0.00148356
0.0118375
0.0271494
0.0432448
0.0588236
0.0725793
0.0833093
0.0900537
0.0922678
0.0900266
0.0842445
0.0768812
0.0710676
0.00578226
-0.000216996
-0.00580302
-0.00954187
-0.0105985
-0.00843239
-0.00296968
0.00547438
0.0163032
0.028712
0.0417501
0.0543864
0.065587
0.0744106
0.080121
0.0823165
0.081078
0.0770555
0.0712746
0.0653183
0.0133365
0.00503483
-0.000994365
-0.00442238
-0.0052724
-0.00326358
0.0016026
0.00902782
0.0185023
0.0293496
0.0407658
0.0518701
0.061769
0.0696369
0.0748076
0.0768787
0.0758423
0.0720865
0.065806
0.0575358
0.0201407
0.00869707
0.00122681
-0.00266775
-0.00372153
-0.00188492
0.00273153
0.00978476
0.0187806
0.0290953
0.0399923
0.0506544
0.0602334
0.0679164
0.0730037
0.075002
0.0737663
0.0694566
0.0616034
0.0501028
0.0245033
0.0097742
0.000590725
-0.00398608
-0.00530155
-0.00350684
0.00117505
0.00833475
0.0174621
0.0279493
0.0390853
0.0500703
0.0600493
0.0681655
0.0736267
0.0757981
0.0743693
0.0692901
0.0595259
0.0445373
0.0251791
0.00715109
-0.0038011
-0.00905636
-0.0105114
-0.00849935
-0.00335636
0.0044297
0.0143135
0.0256792
0.037814
0.0499036
0.0610485
0.0703035
0.076735
0.0795172
0.0781392
0.0723338
0.0605395
0.0418902
0.0210947
-0.000261362
-0.0129336
-0.0187085
-0.020029
-0.0174132
-0.0113178
-0.00231926
0.0089907
0.0219764
0.0359098
0.0499446
0.0631125
0.0743457
0.0825223
0.0865698
0.085721
0.0794473
0.0656206
0.0430719
0.0111439
-0.0136173
-0.0278742
-0.0338535
-0.0346028
-0.0308567
-0.0232121
-0.0123446
0.00110528
0.0164842
0.0330528
0.0499338
0.0660837
0.0802903
0.0912011
0.0974304
0.0978706
0.0916363
0.0758965
0.0491167
-0.00596621
-0.0342656
-0.0498693
-0.0555479
-0.0550894
-0.0495139
-0.0395928
-0.0261126
-0.00975651
0.00882345
0.0289013
0.0495938
0.0697978
0.0881549
0.103048
0.112702
0.115551
0.110192
0.0928346
0.0614117
-0.0318563
-0.0638753
-0.0804161
-0.0850065
-0.0824195
-0.0740777
-0.0609802
-0.0440359
-0.0239508
-0.00133629
0.0231461
0.0486614
0.074096
0.0979726
0.118396
0.133126
0.139989
0.136819
0.118441
0.0819342
-0.0686667
-0.104603
-0.121344
-0.123589
-0.117515
-0.105126
-0.0877176
-0.0663248
-0.0416363
-0.0141549
0.0156062
0.0469538
0.0788563
0.109794
0.137624
0.159586
0.172727
0.173779
0.155521
0.113571
-0.119402
-0.159356
-0.174914
-0.172756
-0.161147
-0.142928
-0.119758
-0.0927763
-0.0625767
-0.0294469
0.00637392
0.0444743
0.0840559
0.123704
0.161137
0.193087
0.215669
0.224078
0.208051
0.160633
-0.188628
-0.232241
-0.243938
-0.233947
-0.213693
-0.187153
-0.156371
-0.1225
-0.085897
-0.0464712
-0.0040135
0.0415398
0.0898431
0.13983
0.18932
0.23469
0.271075
0.291665
0.281744
0.229777
-0.283973
-0.329304
-0.33183
-0.308279
-0.274707
-0.236438
-0.195763
-0.153609
-0.109839
-0.0637439
-0.0144366
0.0388647
0.0965556
0.158278
0.222375
0.285289
0.341398
0.381576
0.384915
0.331835
-0.419317
-0.45967
-0.442349
-0.39579
-0.342127
-0.287737
-0.234614
-0.182928
-0.131607
-0.0789832
-0.0232123
0.037477
0.104555
0.17884
0.259863
0.344972
0.428618
0.499702
0.529677
0.485393
-0.62053
-0.636742
-0.578675
-0.494191
-0.411238
-0.335656
-0.267778
-0.205975
-0.147534
-0.0893806
-0.0284237
0.0383506
0.113809
0.200474
0.299977
0.412027
0.533032
0.651777
0.732774
0.722398
-0.935921
-0.878512
-0.741739
-0.597946
-0.47439
-0.372656
-0.288866
-0.21776
-0.15395
-0.0924611
-0.0287145
0.0416984
0.123266
0.220721
0.338929
0.482157
0.651999
0.841344
1.01527
1.09751
-1.47642
-1.20663
-0.9205
-0.691385
-0.517302
-0.387541
-0.290058
-0.213334
-0.148121
-0.0872125
-0.0245747
0.0454604
0.12894
0.233074
0.367106
0.542681
0.771296
1.05932
1.40329
1.73014
-2.53965
-1.63054
-1.04443
-0.710955
-0.495747
-0.35209
-0.254527
-0.18358
-0.126166
-0.0735921
-0.0192661
0.0427898
0.119215
0.218785
0.354815
0.547987
0.826396
1.23658
1.91168
2.9242
-4.36666
-2.04463
-0.973539
-0.563177
-0.357843
-0.240143
-0.170116
-0.12378
-0.0874782
-0.0535073
-0.0166516
0.0276635
0.0846103
0.161732
0.272414
0.442102
0.718222
1.22571
2.41104
4.84853
)
;

boundaryField
{
    movingWall
    {
        type            zeroGradient;
    }
    fixedWalls
    {
        type            zeroGradient;
    }
    frontAndBack
    {
        type            empty;
    }
}


// ************************************************************************* //
