/*--------------------------------*- C++ -*----------------------------------*\
| =========                 |                                                 |
| \\      /  F ield         | OpenFOAM: The Open Source CFD Toolbox           |
|  \\    /   O peration     | Version:  2.4.0                                 |
|   \\  /    A nd           | Web:      www.OpenFOAM.org                      |
|    \\/     M anipulation  |                                                 |
\*---------------------------------------------------------------------------*/
FoamFile
{
    version     2.0;
    format      ascii;
    class       volScalarField;
    location    "3.3";
    object      p;
}
// * * * * * * * * * * * * * * * * * * * * * * * * * * * * * * * * * * * * * //

dimensions      [0 2 -2 0 0 0 0];

internalField   nonuniform List<scalar> 
400
(
1.35053e-06
-0.0058277
-0.012966
-0.0184186
-0.0204362
-0.0182426
-0.0117781
-0.00148789
0.0118332
0.0271451
0.0432404
0.0588192
0.072575
0.083305
0.0900494
0.0922635
0.0900223
0.0842402
0.0768769
0.0710633
0.0057784
-0.000221117
-0.00580724
-0.00954613
-0.0106028
-0.00843668
-0.00297397
0.00547008
0.0162988
0.0287077
0.0417458
0.0543821
0.0655827
0.0744063
0.0801167
0.0823122
0.0810737
0.0770512
0.0712703
0.0653139
0.0133323
0.00503063
-0.000998601
-0.00442665
-0.0052767
-0.00326788
0.00159831
0.00902353
0.018498
0.0293453
0.0407615
0.0518657
0.0617647
0.0696326
0.0748033
0.0768744
0.075838
0.0720822
0.0658017
0.0575315
0.0201365
0.00869283
0.00122256
-0.00267203
-0.00372584
-0.00188923
0.00272722
0.00978047
0.0187763
0.029091
0.039988
0.0506501
0.060229
0.0679121
0.0729993
0.0749977
0.073762
0.0694523
0.0615991
0.0500985
0.024499
0.00976993
0.000586466
-0.00399036
-0.00530586
-0.00351117
0.00117072
0.00833044
0.0174579
0.027945
0.039081
0.050066
0.060045
0.0681611
0.0736224
0.0757938
0.074365
0.0692858
0.0595216
0.044533
0.0251748
0.00714679
-0.00380537
-0.00906063
-0.0105157
-0.00850367
-0.0033607
0.00442537
0.0143092
0.0256749
0.0378097
0.0498993
0.0610442
0.0702992
0.0767306
0.0795128
0.0781349
0.0723295
0.0605352
0.0418859
0.0210903
-0.000265686
-0.0129379
-0.0187128
-0.0200333
-0.0174175
-0.0113221
-0.00232361
0.00898636
0.0219721
0.0359055
0.0499403
0.0631082
0.0743413
0.0825179
0.0865655
0.0857166
0.079443
0.0656163
0.0430676
0.0111396
-0.0136216
-0.0278786
-0.0338578
-0.034607
-0.030861
-0.0232165
-0.0123489
0.00110093
0.0164798
0.0330484
0.0499295
0.0660794
0.080286
0.0911968
0.0974261
0.0978663
0.091632
0.0758922
0.0491124
-0.00597053
-0.0342699
-0.0498736
-0.0555522
-0.0550937
-0.0495181
-0.0395971
-0.0261169
-0.00976085
0.0088191
0.028897
0.0495894
0.0697935
0.0881506
0.103044
0.112697
0.115547
0.110188
0.0928303
0.0614074
-0.0318606
-0.0638797
-0.0804205
-0.0850108
-0.0824238
-0.074082
-0.0609845
-0.0440402
-0.0239551
-0.00134063
0.0231417
0.0486571
0.0740916
0.0979683
0.118392
0.133122
0.139985
0.136814
0.118437
0.0819299
-0.068671
-0.104607
-0.121348
-0.123594
-0.117519
-0.10513
-0.0877219
-0.0663291
-0.0416406
-0.0141592
0.0156019
0.0469494
0.0788519
0.10979
0.13762
0.159582
0.172723
0.173774
0.155517
0.113567
-0.119406
-0.159361
-0.174918
-0.17276
-0.161151
-0.142932
-0.119763
-0.0927806
-0.062581
-0.0294512
0.0063696
0.0444699
0.0840515
0.123699
0.161133
0.193082
0.215664
0.224073
0.208047
0.160629
-0.188632
-0.232245
-0.243942
-0.233951
-0.213698
-0.187158
-0.156376
-0.122505
-0.0859013
-0.0464755
-0.0040178
0.0415355
0.0898388
0.139826
0.189316
0.234686
0.271071
0.291661
0.281739
0.229772
-0.283978
-0.329308
-0.331835
-0.308283
-0.274711
-0.236443
-0.195767
-0.153613
-0.109843
-0.0637482
-0.0144409
0.0388604
0.0965513
0.158274
0.222371
0.285285
0.341394
0.381572
0.384911
0.331831
-0.419321
-0.459674
-0.442353
-0.395795
-0.342131
-0.287742
-0.234618
-0.182932
-0.131612
-0.0789875
-0.0232166
0.0374727
0.104551
0.178835
0.259859
0.344968
0.428614
0.499697
0.529672
0.485389
-0.620534
-0.636746
-0.578679
-0.494195
-0.411242
-0.33566
-0.267782
-0.205979
-0.147538
-0.0893849
-0.0284281
0.0383463
0.113805
0.20047
0.299973
0.412023
0.533027
0.651773
0.73277
0.722393
-0.935926
-0.878517
-0.741743
-0.59795
-0.474394
-0.372661
-0.28887
-0.217764
-0.153955
-0.0924654
-0.0287189
0.0416941
0.123262
0.220716
0.338924
0.482153
0.651995
0.84134
1.01527
1.0975
-1.47642
-1.20663
-0.920504
-0.691389
-0.517306
-0.387545
-0.290062
-0.213338
-0.148125
-0.0872168
-0.024579
0.0454561
0.128936
0.233069
0.367102
0.542677
0.771292
1.05932
1.40329
1.73014
-2.53965
-1.63055
-1.04444
-0.71096
-0.495752
-0.352094
-0.254532
-0.183584
-0.12617
-0.0735964
-0.0192704
0.0427855
0.119211
0.218781
0.354811
0.547982
0.826391
1.23658
1.91168
2.92419
-4.36667
-2.04464
-0.973543
-0.563182
-0.357847
-0.240148
-0.17012
-0.123784
-0.0874825
-0.0535116
-0.0166559
0.0276592
0.0846059
0.161728
0.27241
0.442097
0.718217
1.22571
2.41103
4.84853
)
;

boundaryField
{
    movingWall
    {
        type            zeroGradient;
    }
    fixedWalls
    {
        type            zeroGradient;
    }
    frontAndBack
    {
        type            empty;
    }
}


// ************************************************************************* //
