/*--------------------------------*- C++ -*----------------------------------*\
| =========                 |                                                 |
| \\      /  F ield         | OpenFOAM: The Open Source CFD Toolbox           |
|  \\    /   O peration     | Version:  2.4.0                                 |
|   \\  /    A nd           | Web:      www.OpenFOAM.org                      |
|    \\/     M anipulation  |                                                 |
\*---------------------------------------------------------------------------*/
FoamFile
{
    version     2.0;
    format      ascii;
    class       volScalarField;
    location    "2.5";
    object      p;
}
// * * * * * * * * * * * * * * * * * * * * * * * * * * * * * * * * * * * * * //

dimensions      [0 2 -2 0 0 0 0];

internalField   nonuniform List<scalar> 
400
(
1.86023e-06
-0.00582683
-0.0129651
-0.0184176
-0.0204353
-0.0182417
-0.0117771
-0.00148693
0.0118342
0.027146
0.0432414
0.0588202
0.072576
0.0833059
0.0900503
0.0922645
0.0900232
0.0842412
0.0768778
0.0710643
0.00577926
-0.000220197
-0.0058063
-0.00954518
-0.0106018
-0.00843572
-0.00297302
0.00547103
0.0162998
0.0287086
0.0417468
0.0543831
0.0655836
0.0744073
0.0801177
0.0823132
0.0810746
0.0770521
0.0712713
0.0653149
0.0133332
0.00503156
-0.000997658
-0.0044257
-0.00527573
-0.0032669
0.00159927
0.00902448
0.018499
0.0293462
0.0407624
0.0518667
0.0617656
0.0696336
0.0748043
0.0768754
0.0758389
0.0720831
0.0658026
0.0575325
0.0201374
0.00869377
0.0012235
-0.00267108
-0.00372487
-0.00188825
0.0027282
0.00978144
0.0187773
0.029092
0.039989
0.0506511
0.06023
0.0679131
0.0730003
0.0749987
0.073763
0.0694532
0.0616
0.0500994
0.0244999
0.00977088
0.000587406
-0.00398942
-0.0053049
-0.00351019
0.00117171
0.00833142
0.0174588
0.0279459
0.0390819
0.0500669
0.0600459
0.0681621
0.0736234
0.0757947
0.074366
0.0692868
0.0595225
0.044534
0.0251758
0.00714776
-0.00380442
-0.00905969
-0.0105147
-0.00850271
-0.00335972
0.00442636
0.0143102
0.0256758
0.0378107
0.0499003
0.0610451
0.0703001
0.0767316
0.0795138
0.0781358
0.0723305
0.0605362
0.0418868
0.0210913
-0.000264708
-0.012937
-0.0187118
-0.0200324
-0.0174166
-0.0113211
-0.00232262
0.00898736
0.021973
0.0359065
0.0499413
0.0631091
0.0743423
0.0825189
0.0865664
0.0857176
0.079444
0.0656172
0.0430685
0.0111405
-0.0136206
-0.0278776
-0.0338568
-0.0346061
-0.0308601
-0.0232155
-0.012348
0.00110192
0.0164808
0.0330494
0.0499305
0.0660803
0.0802869
0.0911977
0.097427
0.0978673
0.091633
0.0758932
0.0491133
-0.00596957
-0.034269
-0.0498726
-0.0555512
-0.0550928
-0.0495172
-0.0395961
-0.026116
-0.00975989
0.00882008
0.028898
0.0495904
0.0697944
0.0881515
0.103045
0.112698
0.115548
0.110189
0.0928312
0.0614084
-0.0318597
-0.0638787
-0.0804195
-0.0850098
-0.0824228
-0.074081
-0.0609836
-0.0440393
-0.0239542
-0.00133967
0.0231427
0.0486581
0.0740926
0.0979693
0.118393
0.133123
0.139986
0.136815
0.118438
0.0819309
-0.06867
-0.104606
-0.121347
-0.123593
-0.117518
-0.105129
-0.087721
-0.0663282
-0.0416397
-0.0141583
0.0156028
0.0469504
0.0788529
0.109791
0.137621
0.159583
0.172724
0.173775
0.155518
0.113568
-0.119405
-0.15936
-0.174917
-0.172759
-0.16115
-0.142931
-0.119762
-0.0927796
-0.06258
-0.0294502
0.00637054
0.0444709
0.0840525
0.1237
0.161134
0.193083
0.215665
0.224074
0.208048
0.16063
-0.188631
-0.232244
-0.243941
-0.23395
-0.213697
-0.187157
-0.156375
-0.122504
-0.0859003
-0.0464746
-0.00401685
0.0415364
0.0898398
0.139827
0.189316
0.234687
0.271072
0.291662
0.28174
0.229773
-0.283977
-0.329307
-0.331834
-0.308282
-0.27471
-0.236442
-0.195766
-0.153612
-0.109842
-0.0637473
-0.01444
0.0388614
0.0965522
0.158275
0.222372
0.285286
0.341395
0.381573
0.384912
0.331832
-0.41932
-0.459673
-0.442352
-0.395794
-0.342131
-0.287741
-0.234617
-0.182931
-0.131611
-0.0789865
-0.0232156
0.0374737
0.104552
0.178836
0.25986
0.344969
0.428615
0.499698
0.529673
0.48539
-0.620533
-0.636745
-0.578678
-0.494194
-0.411242
-0.335659
-0.267781
-0.205978
-0.147537
-0.089384
-0.0284271
0.0383472
0.113806
0.200471
0.299974
0.412024
0.533028
0.651774
0.73277
0.722394
-0.935925
-0.878516
-0.741742
-0.597949
-0.474393
-0.37266
-0.288869
-0.217763
-0.153954
-0.0924645
-0.0287179
0.041695
0.123263
0.220717
0.338925
0.482154
0.651996
0.841341
1.01527
1.0975
-1.47642
-1.20663
-0.920503
-0.691388
-0.517305
-0.387544
-0.290061
-0.213337
-0.148124
-0.0872159
-0.024578
0.045457
0.128937
0.23307
0.367103
0.542678
0.771293
1.05932
1.40329
1.73014
-2.53965
-1.63055
-1.04444
-0.710959
-0.495751
-0.352093
-0.254531
-0.183583
-0.126169
-0.0735955
-0.0192695
0.0427864
0.119212
0.218782
0.354812
0.547983
0.826392
1.23658
1.91168
2.92419
-4.36666
-2.04463
-0.973542
-0.563181
-0.357846
-0.240147
-0.170119
-0.123783
-0.0874816
-0.0535107
-0.0166549
0.0276601
0.0846069
0.161729
0.272411
0.442098
0.718218
1.22571
2.41103
4.84853
)
;

boundaryField
{
    movingWall
    {
        type            zeroGradient;
    }
    fixedWalls
    {
        type            zeroGradient;
    }
    frontAndBack
    {
        type            empty;
    }
}


// ************************************************************************* //
