/*--------------------------------*- C++ -*----------------------------------*\
| =========                 |                                                 |
| \\      /  F ield         | OpenFOAM: The Open Source CFD Toolbox           |
|  \\    /   O peration     | Version:  2.4.0                                 |
|   \\  /    A nd           | Web:      www.OpenFOAM.org                      |
|    \\/     M anipulation  |                                                 |
\*---------------------------------------------------------------------------*/
FoamFile
{
    version     2.0;
    format      ascii;
    class       volScalarField;
    location    "2.4";
    object      p;
}
// * * * * * * * * * * * * * * * * * * * * * * * * * * * * * * * * * * * * * //

dimensions      [0 2 -2 0 0 0 0];

internalField   nonuniform List<scalar> 
400
(
1.93316e-06
-0.0058267
-0.0129649
-0.0184174
-0.0204351
-0.0182416
-0.0117771
-0.00148686
0.0118343
0.0271463
0.0432417
0.0588204
0.0725761
0.083306
0.0900503
0.0922645
0.0900233
0.0842414
0.0768781
0.0710646
0.00577938
-0.000220086
-0.00580616
-0.009545
-0.0106016
-0.00843554
-0.0029729
0.0054711
0.0162999
0.0287087
0.041747
0.0543833
0.0655839
0.0744074
0.0801178
0.0823132
0.0810747
0.0770522
0.0712715
0.0653152
0.0133334
0.00503166
-0.000997565
-0.00442556
-0.00527554
-0.00326668
0.00159947
0.0090246
0.018499
0.0293463
0.0407625
0.0518669
0.0617659
0.0696338
0.0748045
0.0768755
0.075839
0.0720832
0.0658027
0.0575327
0.0201376
0.0086939
0.00122357
-0.002671
-0.00372473
-0.00188804
0.00272845
0.00978164
0.0187774
0.029092
0.039989
0.0506511
0.0602302
0.0679133
0.0730006
0.0749989
0.0737631
0.0694533
0.0616001
0.0500996
0.0245001
0.00977105
0.000587507
-0.00398937
-0.00530483
-0.00351005
0.00117194
0.00833168
0.017459
0.0279461
0.039082
0.0500669
0.060046
0.0681623
0.0736236
0.075795
0.0743662
0.0692869
0.0595226
0.044534
0.025176
0.00714796
-0.00380426
-0.0090596
-0.0105147
-0.00850266
-0.00335957
0.0044266
0.0143105
0.0256761
0.0378108
0.0499003
0.0610451
0.0703002
0.0767318
0.0795141
0.0781361
0.0723307
0.0605363
0.0418869
0.0210914
-0.000264498
-0.0129367
-0.0187117
-0.0200323
-0.0174165
-0.0113211
-0.00232247
0.00898761
0.0219733
0.0359067
0.0499414
0.0631092
0.0743423
0.0825189
0.0865666
0.0857178
0.0794442
0.0656174
0.0430686
0.0111406
-0.0136205
-0.0278773
-0.0338566
-0.0346059
-0.03086
-0.0232155
-0.0123479
0.00110207
0.0164811
0.0330497
0.0499307
0.0660805
0.080287
0.0911978
0.0974271
0.0978674
0.0916332
0.0758934
0.0491135
-0.00596954
-0.0342689
-0.0498724
-0.055551
-0.0550925
-0.0495171
-0.0395961
-0.026116
-0.00975985
0.00882023
0.0288982
0.0495907
0.0697947
0.0881517
0.103045
0.112698
0.115548
0.110189
0.0928314
0.0614085
-0.0318596
-0.0638786
-0.0804194
-0.0850096
-0.0824225
-0.0740808
-0.0609834
-0.0440392
-0.0239542
-0.00133963
0.0231428
0.0486583
0.0740929
0.0979695
0.118393
0.133123
0.139986
0.136815
0.118438
0.081931
-0.0686699
-0.104606
-0.121347
-0.123593
-0.117518
-0.105129
-0.0877207
-0.066328
-0.0416396
-0.0141583
0.0156029
0.0469505
0.0788531
0.109791
0.137621
0.159583
0.172724
0.173775
0.155518
0.113568
-0.119405
-0.159359
-0.174917
-0.172759
-0.16115
-0.142931
-0.119761
-0.0927794
-0.0625799
-0.0294502
0.00637058
0.0444709
0.0840526
0.123701
0.161134
0.193084
0.215666
0.224075
0.208048
0.16063
-0.188631
-0.232244
-0.243941
-0.23395
-0.213697
-0.187157
-0.156375
-0.122503
-0.0859001
-0.0464744
-0.00401675
0.0415365
0.0898398
0.139827
0.189317
0.234687
0.271072
0.291662
0.28174
0.229774
-0.283977
-0.329307
-0.331834
-0.308282
-0.27471
-0.236442
-0.195766
-0.153612
-0.109842
-0.063747
-0.0144398
0.0388615
0.0965523
0.158275
0.222372
0.285286
0.341395
0.381573
0.384912
0.331832
-0.41932
-0.459673
-0.442352
-0.395794
-0.34213
-0.287741
-0.234617
-0.182931
-0.131611
-0.0789863
-0.0232154
0.0374739
0.104552
0.178836
0.25986
0.344969
0.428615
0.499699
0.529674
0.48539
-0.620533
-0.636745
-0.578678
-0.494194
-0.411241
-0.335659
-0.267781
-0.205978
-0.147537
-0.0893838
-0.0284269
0.0383474
0.113806
0.200471
0.299974
0.412024
0.533028
0.651774
0.732771
0.722395
-0.935925
-0.878516
-0.741742
-0.597949
-0.474393
-0.372659
-0.288869
-0.217763
-0.153954
-0.0924644
-0.0287178
0.0416952
0.123263
0.220718
0.338925
0.482154
0.651996
0.841341
1.01527
1.0975
-1.47642
-1.20663
-0.920503
-0.691388
-0.517305
-0.387544
-0.290061
-0.213337
-0.148124
-0.0872158
-0.0245779
0.0454571
0.128937
0.233071
0.367103
0.542678
0.771293
1.05932
1.40329
1.73014
-2.53965
-1.63055
-1.04444
-0.710959
-0.49575
-0.352093
-0.254531
-0.183583
-0.126169
-0.0735953
-0.0192693
0.0427865
0.119212
0.218782
0.354812
0.547983
0.826393
1.23658
1.91168
2.92419
-4.36666
-2.04463
-0.973542
-0.563181
-0.357846
-0.240147
-0.170119
-0.123783
-0.0874814
-0.0535105
-0.0166548
0.0276603
0.084607
0.161729
0.272411
0.442099
0.718218
1.22571
2.41103
4.84853
)
;

boundaryField
{
    movingWall
    {
        type            zeroGradient;
    }
    fixedWalls
    {
        type            zeroGradient;
    }
    frontAndBack
    {
        type            empty;
    }
}


// ************************************************************************* //
