/*--------------------------------*- C++ -*----------------------------------*\
| =========                 |                                                 |
| \\      /  F ield         | OpenFOAM: The Open Source CFD Toolbox           |
|  \\    /   O peration     | Version:  2.4.0                                 |
|   \\  /    A nd           | Web:      www.OpenFOAM.org                      |
|    \\/     M anipulation  |                                                 |
\*---------------------------------------------------------------------------*/
FoamFile
{
    version     2.0;
    format      ascii;
    class       volScalarField;
    location    "0.6";
    object      p;
}
// * * * * * * * * * * * * * * * * * * * * * * * * * * * * * * * * * * * * * //

dimensions      [0 2 -2 0 0 0 0];

internalField   nonuniform List<scalar> 
400
(
4.09815e-06
-0.00582298
-0.0129608
-0.0184133
-0.0204309
-0.0182373
-0.0117728
-0.00148254
0.0118386
0.0271504
0.0432457
0.0588244
0.07258
0.08331
0.0900544
0.0922686
0.0900274
0.0842454
0.0768821
0.0710686
0.005783
-0.000216148
-0.00580208
-0.00954087
-0.0105975
-0.00843142
-0.00296876
0.00547529
0.0163041
0.028713
0.0417511
0.0543873
0.0655878
0.0744114
0.0801218
0.0823173
0.0810788
0.0770564
0.0712756
0.0653193
0.0133373
0.00503563
-0.000993495
-0.00442142
-0.00527138
-0.00326257
0.00160353
0.00902868
0.0185032
0.0293505
0.0407667
0.051871
0.0617699
0.0696378
0.0748084
0.0768795
0.0758431
0.0720874
0.0658069
0.0575369
0.0201415
0.00869783
0.00122761
-0.00266686
-0.00372055
-0.00188388
0.00273252
0.00978567
0.0187814
0.0290961
0.0399932
0.0506553
0.0602343
0.0679174
0.0730046
0.0750029
0.0737672
0.0694575
0.0616043
0.0501038
0.0245041
0.00977497
0.000591486
-0.00398528
-0.00530065
-0.00350584
0.00117609
0.00833574
0.017463
0.0279501
0.0390861
0.0500712
0.0600502
0.0681664
0.0736277
0.075799
0.0743703
0.0692911
0.0595269
0.0445384
0.0251799
0.00715192
-0.0038003
-0.00905559
-0.0105106
-0.00849842
-0.00335533
0.00443076
0.0143145
0.0256801
0.0378149
0.0499045
0.0610494
0.0703045
0.076736
0.0795182
0.0781402
0.0723348
0.0605405
0.0418913
0.0210955
-0.000260461
-0.0129327
-0.0187077
-0.0200282
-0.0174123
-0.0113168
-0.00231821
0.00899178
0.0219774
0.0359108
0.0499455
0.0631134
0.0743466
0.0825232
0.0865708
0.085722
0.0794483
0.0656216
0.0430729
0.0111447
-0.0136163
-0.0278732
-0.0338525
-0.0346019
-0.0308559
-0.0232113
-0.0123436
0.00110637
0.0164853
0.0330538
0.0499348
0.0660846
0.0802912
0.0912021
0.0974314
0.0978716
0.0916374
0.0758976
0.0491178
-0.00596541
-0.0342647
-0.0498682
-0.0555468
-0.0550885
-0.049513
-0.0395919
-0.0261117
-0.00975548
0.00882456
0.0289024
0.0495948
0.0697988
0.0881559
0.103049
0.112703
0.115552
0.110193
0.0928356
0.0614128
-0.0318555
-0.0638744
-0.0804151
-0.0850054
-0.0824184
-0.0740767
-0.0609793
-0.044035
-0.0239498
-0.00133523
0.0231472
0.0486625
0.074097
0.0979737
0.118397
0.133127
0.13999
0.13682
0.118442
0.0819353
-0.0686657
-0.104602
-0.121343
-0.123588
-0.117514
-0.105125
-0.0877166
-0.0663238
-0.0416353
-0.0141539
0.0156073
0.0469549
0.0788574
0.109795
0.137625
0.159587
0.172728
0.17378
0.155522
0.113572
-0.119401
-0.159355
-0.174913
-0.172755
-0.161146
-0.142927
-0.119757
-0.0927752
-0.0625757
-0.0294458
0.00637497
0.0444754
0.084057
0.123705
0.161138
0.193088
0.21567
0.224079
0.208052
0.160634
-0.188626
-0.23224
-0.243937
-0.233946
-0.213692
-0.187152
-0.15637
-0.122499
-0.0858959
-0.0464702
-0.00401244
0.0415409
0.0898442
0.139831
0.189321
0.234691
0.271076
0.291666
0.281745
0.229778
-0.283972
-0.329302
-0.331829
-0.308278
-0.274706
-0.236437
-0.195762
-0.153608
-0.109838
-0.0637428
-0.0144355
0.0388658
0.0965567
0.158279
0.222377
0.28529
0.341399
0.381577
0.384916
0.331836
-0.419316
-0.459668
-0.442348
-0.395789
-0.342126
-0.287737
-0.234613
-0.182927
-0.131606
-0.0789821
-0.0232112
0.0374781
0.104556
0.178841
0.259864
0.344973
0.428619
0.499703
0.529678
0.485394
-0.620528
-0.63674
-0.578674
-0.49419
-0.411237
-0.335655
-0.267777
-0.205974
-0.147533
-0.0893795
-0.0284226
0.0383517
0.11381
0.200475
0.299978
0.412028
0.533033
0.651778
0.732775
0.722399
-0.93592
-0.878511
-0.741738
-0.597945
-0.474389
-0.372655
-0.288865
-0.217759
-0.153949
-0.09246
-0.0287135
0.0416995
0.123267
0.220722
0.33893
0.482158
0.652
0.841345
1.01527
1.09751
-1.47642
-1.20663
-0.920499
-0.691384
-0.517301
-0.38754
-0.290057
-0.213333
-0.14812
-0.0872115
-0.0245736
0.0454615
0.128941
0.233075
0.367107
0.542682
0.771297
1.05932
1.40329
1.73014
-2.53964
-1.63054
-1.04443
-0.710955
-0.495746
-0.352089
-0.254527
-0.183579
-0.126165
-0.0735912
-0.0192651
0.0427908
0.119216
0.218787
0.354816
0.547988
0.826397
1.23658
1.91168
2.9242
-4.36666
-2.04463
-0.973538
-0.563177
-0.357842
-0.240142
-0.170115
-0.123779
-0.0874773
-0.0535064
-0.0166506
0.0276645
0.0846114
0.161733
0.272415
0.442103
0.718223
1.22571
2.41104
4.84854
)
;

boundaryField
{
    movingWall
    {
        type            zeroGradient;
    }
    fixedWalls
    {
        type            zeroGradient;
    }
    frontAndBack
    {
        type            empty;
    }
}


// ************************************************************************* //
