/*--------------------------------*- C++ -*----------------------------------*\
| =========                 |                                                 |
| \\      /  F ield         | OpenFOAM: The Open Source CFD Toolbox           |
|  \\    /   O peration     | Version:  2.4.0                                 |
|   \\  /    A nd           | Web:      www.OpenFOAM.org                      |
|    \\/     M anipulation  |                                                 |
\*---------------------------------------------------------------------------*/
FoamFile
{
    version     2.0;
    format      ascii;
    class       volScalarField;
    location    "3.4";
    object      p;
}
// * * * * * * * * * * * * * * * * * * * * * * * * * * * * * * * * * * * * * //

dimensions      [0 2 -2 0 0 0 0];

internalField   nonuniform List<scalar> 
400
(
1.29792e-06
-0.00582777
-0.0129661
-0.0184186
-0.0204364
-0.0182428
-0.0117783
-0.00148802
0.0118332
0.0271451
0.0432405
0.0588192
0.0725749
0.0833048
0.0900491
0.0922633
0.0900222
0.0842402
0.0768769
0.0710634
0.00577829
-0.000221225
-0.00580732
-0.00954618
-0.0106028
-0.00843678
-0.00297414
0.00546988
0.0162987
0.0287076
0.0417458
0.0543821
0.0655826
0.0744062
0.0801165
0.082312
0.0810735
0.077051
0.0712703
0.065314
0.0133322
0.00503048
-0.000998724
-0.00442672
-0.00527671
-0.00326789
0.00159822
0.00902335
0.0184978
0.0293451
0.0407614
0.0518657
0.0617647
0.0696326
0.0748032
0.0768743
0.0758377
0.072082
0.0658015
0.0575315
0.0201364
0.00869269
0.00122239
-0.00267216
-0.00372588
-0.00188921
0.00272723
0.00978038
0.0187761
0.0290908
0.0399878
0.05065
0.060229
0.0679121
0.0729994
0.0749976
0.0737619
0.0694521
0.0615989
0.0500984
0.0244989
0.00976982
0.00058628
-0.00399056
-0.00530599
-0.00351119
0.00117077
0.00833046
0.0174578
0.0279448
0.0390807
0.0500658
0.0600448
0.0681611
0.0736225
0.0757938
0.074365
0.0692857
0.0595214
0.0445328
0.0251748
0.00714674
-0.0038055
-0.00906084
-0.0105159
-0.0085038
-0.00336071
0.00442543
0.0143092
0.0256748
0.0378095
0.0498991
0.0610439
0.070299
0.0767306
0.0795129
0.0781349
0.0723294
0.060535
0.0418857
0.0210903
-0.000265692
-0.012938
-0.0187129
-0.0200336
-0.0174177
-0.0113222
-0.0023236
0.00898644
0.0219721
0.0359055
0.0499401
0.0631079
0.0743411
0.0825178
0.0865654
0.0857167
0.079443
0.0656162
0.0430674
0.0111394
-0.0136216
-0.0278785
-0.0338578
-0.0346072
-0.0308613
-0.0232167
-0.0123491
0.00110094
0.0164799
0.0330485
0.0499295
0.0660792
0.0802857
0.0911966
0.0974259
0.0978662
0.091632
0.0758922
0.0491123
-0.00597074
-0.03427
-0.0498736
-0.0555522
-0.0550938
-0.0495183
-0.0395973
-0.0261172
-0.00976099
0.00881909
0.028897
0.0495895
0.0697934
0.0881504
0.103043
0.112697
0.115547
0.110188
0.0928302
0.0614073
-0.0318609
-0.0638798
-0.0804205
-0.0850108
-0.0824237
-0.074082
-0.0609847
-0.0440405
-0.0239554
-0.00134078
0.0231417
0.0486571
0.0740917
0.0979683
0.118392
0.133122
0.139985
0.136814
0.118437
0.0819298
-0.0686711
-0.104607
-0.121348
-0.123594
-0.117519
-0.10513
-0.087722
-0.0663293
-0.0416409
-0.0141595
0.0156017
0.0469494
0.0788519
0.10979
0.13762
0.159582
0.172723
0.173774
0.155517
0.113567
-0.119406
-0.159361
-0.174919
-0.172761
-0.161151
-0.142932
-0.119762
-0.0927806
-0.0625811
-0.0294514
0.00636937
0.0444698
0.0840514
0.123699
0.161133
0.193082
0.215664
0.224073
0.208047
0.160629
-0.188632
-0.232246
-0.243942
-0.233951
-0.213698
-0.187158
-0.156376
-0.122504
-0.0859013
-0.0464757
-0.004018
0.0415353
0.0898386
0.139826
0.189315
0.234686
0.271071
0.291661
0.281739
0.229772
-0.283978
-0.329308
-0.331835
-0.308283
-0.274712
-0.236443
-0.195767
-0.153613
-0.109843
-0.0637483
-0.014441
0.0388603
0.0965511
0.158273
0.222371
0.285285
0.341394
0.381572
0.384911
0.331831
-0.419321
-0.459674
-0.442353
-0.395795
-0.342132
-0.287742
-0.234618
-0.182932
-0.131612
-0.0789875
-0.0232166
0.0374727
0.104551
0.178835
0.259859
0.344968
0.428614
0.499697
0.529672
0.485389
-0.620534
-0.636746
-0.578679
-0.494195
-0.411243
-0.33566
-0.267782
-0.20598
-0.147539
-0.089385
-0.0284281
0.0383462
0.113805
0.200469
0.299973
0.412023
0.533027
0.651773
0.732769
0.722393
-0.935926
-0.878517
-0.741743
-0.59795
-0.474394
-0.372661
-0.28887
-0.217764
-0.153955
-0.0924656
-0.028719
0.041694
0.123262
0.220716
0.338924
0.482153
0.651995
0.84134
1.01527
1.0975
-1.47642
-1.20663
-0.920505
-0.691389
-0.517306
-0.387545
-0.290062
-0.213339
-0.148125
-0.087217
-0.0245791
0.045456
0.128936
0.233069
0.367102
0.542677
0.771291
1.05932
1.40329
1.73014
-2.53965
-1.63055
-1.04444
-0.71096
-0.495752
-0.352094
-0.254532
-0.183584
-0.126171
-0.0735965
-0.0192705
0.0427853
0.119211
0.218781
0.354811
0.547982
0.826391
1.23658
1.91168
2.92419
-4.36667
-2.04464
-0.973543
-0.563182
-0.357847
-0.240148
-0.17012
-0.123784
-0.0874826
-0.0535117
-0.016656
0.027659
0.0846058
0.161728
0.27241
0.442097
0.718217
1.22571
2.41103
4.84853
)
;

boundaryField
{
    movingWall
    {
        type            zeroGradient;
    }
    fixedWalls
    {
        type            zeroGradient;
    }
    frontAndBack
    {
        type            empty;
    }
}


// ************************************************************************* //
