/*--------------------------------*- C++ -*----------------------------------*\
| =========                 |                                                 |
| \\      /  F ield         | OpenFOAM: The Open Source CFD Toolbox           |
|  \\    /   O peration     | Version:  2.4.0                                 |
|   \\  /    A nd           | Web:      www.OpenFOAM.org                      |
|    \\/     M anipulation  |                                                 |
\*---------------------------------------------------------------------------*/
FoamFile
{
    version     2.0;
    format      ascii;
    class       volScalarField;
    location    "2.7";
    object      p;
}
// * * * * * * * * * * * * * * * * * * * * * * * * * * * * * * * * * * * * * //

dimensions      [0 2 -2 0 0 0 0];

internalField   nonuniform List<scalar> 
400
(
1.7113e-06
-0.00582707
-0.0129653
-0.0184179
-0.0204356
-0.018242
-0.0117775
-0.00148722
0.0118339
0.0271459
0.0432412
0.05882
0.0725757
0.0833055
0.0900499
0.0922641
0.090023
0.084241
0.0768777
0.0710641
0.00577899
-0.000220474
-0.00580655
-0.00954541
-0.010602
-0.00843601
-0.00297335
0.00547067
0.0162995
0.0287084
0.0417466
0.0543829
0.0655834
0.074407
0.0801173
0.0823128
0.0810743
0.0770518
0.0712711
0.0653148
0.0133329
0.00503125
-0.000997949
-0.00442594
-0.00527594
-0.00326713
0.00159899
0.00902413
0.0184986
0.0293459
0.0407622
0.0518665
0.0617655
0.0696334
0.074804
0.076875
0.0758385
0.0720828
0.0658023
0.0575323
0.0201372
0.00869346
0.00122317
-0.00267138
-0.0037251
-0.00188844
0.00272799
0.00978115
0.0187769
0.0290916
0.0399886
0.0506508
0.0602298
0.0679129
0.0730001
0.0749984
0.0737626
0.0694529
0.0615997
0.0500992
0.0244997
0.0097706
0.000587063
-0.00398977
-0.0053052
-0.00351041
0.00117153
0.00833122
0.0174585
0.0279456
0.0390815
0.0500666
0.0600456
0.0681619
0.0736232
0.0757945
0.0743657
0.0692865
0.0595222
0.0445336
0.0251756
0.00714751
-0.00380473
-0.00906005
-0.0105151
-0.00850301
-0.00335993
0.00442619
0.01431
0.0256756
0.0378103
0.0498999
0.0610447
0.0702998
0.0767314
0.0795136
0.0781356
0.0723302
0.0605358
0.0418865
0.0210911
-0.000264919
-0.0129372
-0.0187122
-0.0200328
-0.0174169
-0.0113214
-0.00232282
0.0089872
0.0219729
0.0359062
0.0499409
0.0631087
0.0743419
0.0825186
0.0865662
0.0857174
0.0794438
0.065617
0.0430682
0.0111402
-0.0136208
-0.0278778
-0.0338571
-0.0346064
-0.0308605
-0.0232159
-0.0123483
0.00110172
0.0164807
0.0330492
0.0499302
0.06608
0.0802865
0.0911974
0.0974267
0.097867
0.0916328
0.0758929
0.0491131
-0.00596994
-0.0342692
-0.0498728
-0.0555514
-0.055093
-0.0495176
-0.0395965
-0.0261164
-0.00976019
0.00881987
0.0288978
0.0495902
0.0697942
0.0881512
0.103044
0.112698
0.115547
0.110189
0.092831
0.0614081
-0.0318601
-0.063879
-0.0804198
-0.08501
-0.082423
-0.0740813
-0.0609839
-0.0440397
-0.0239546
-0.00133998
0.0231425
0.0486579
0.0740924
0.0979691
0.118393
0.133123
0.139985
0.136815
0.118438
0.0819306
-0.0686704
-0.104606
-0.121347
-0.123593
-0.117518
-0.105129
-0.0877212
-0.0663285
-0.0416401
-0.0141587
0.0156025
0.0469502
0.0788527
0.10979
0.137621
0.159583
0.172724
0.173775
0.155517
0.113568
-0.119405
-0.15936
-0.174918
-0.17276
-0.161151
-0.142932
-0.119762
-0.0927799
-0.0625804
-0.0294506
0.00637017
0.0444706
0.0840522
0.1237
0.161133
0.193083
0.215665
0.224074
0.208048
0.16063
-0.188631
-0.232245
-0.243941
-0.233951
-0.213697
-0.187157
-0.156375
-0.122504
-0.0859006
-0.0464749
-0.00401721
0.0415361
0.0898394
0.139827
0.189316
0.234687
0.271072
0.291662
0.28174
0.229773
-0.283977
-0.329307
-0.331834
-0.308282
-0.274711
-0.236442
-0.195767
-0.153612
-0.109842
-0.0637475
-0.0144403
0.038861
0.0965519
0.158274
0.222372
0.285286
0.341395
0.381573
0.384912
0.331832
-0.419321
-0.459673
-0.442352
-0.395794
-0.342131
-0.287741
-0.234618
-0.182932
-0.131611
-0.0789867
-0.0232158
0.0374734
0.104551
0.178836
0.259859
0.344968
0.428614
0.499698
0.529673
0.48539
-0.620533
-0.636745
-0.578678
-0.494194
-0.411242
-0.33566
-0.267782
-0.205979
-0.147538
-0.0893842
-0.0284273
0.038347
0.113805
0.20047
0.299974
0.412024
0.533028
0.651774
0.73277
0.722394
-0.935925
-0.878516
-0.741742
-0.597949
-0.474394
-0.37266
-0.288869
-0.217763
-0.153954
-0.0924648
-0.0287182
0.0416948
0.123263
0.220717
0.338925
0.482154
0.651996
0.841341
1.01527
1.0975
-1.47642
-1.20663
-0.920504
-0.691388
-0.517305
-0.387544
-0.290062
-0.213338
-0.148124
-0.0872162
-0.0245783
0.0454567
0.128937
0.23307
0.367102
0.542677
0.771292
1.05932
1.40329
1.73014
-2.53965
-1.63055
-1.04444
-0.710959
-0.495751
-0.352093
-0.254531
-0.183584
-0.12617
-0.0735958
-0.0192698
0.0427861
0.119211
0.218782
0.354811
0.547983
0.826392
1.23658
1.91168
2.92419
-4.36667
-2.04463
-0.973543
-0.563181
-0.357847
-0.240147
-0.17012
-0.123783
-0.0874818
-0.0535109
-0.0166552
0.0276598
0.0846066
0.161729
0.27241
0.442098
0.718218
1.22571
2.41103
4.84853
)
;

boundaryField
{
    movingWall
    {
        type            zeroGradient;
    }
    fixedWalls
    {
        type            zeroGradient;
    }
    frontAndBack
    {
        type            empty;
    }
}


// ************************************************************************* //
