/*--------------------------------*- C++ -*----------------------------------*\
| =========                 |                                                 |
| \\      /  F ield         | OpenFOAM: The Open Source CFD Toolbox           |
|  \\    /   O peration     | Version:  2.4.0                                 |
|   \\  /    A nd           | Web:      www.OpenFOAM.org                      |
|    \\/     M anipulation  |                                                 |
\*---------------------------------------------------------------------------*/
FoamFile
{
    version     2.0;
    format      ascii;
    class       volScalarField;
    location    "4.7";
    object      p;
}
// * * * * * * * * * * * * * * * * * * * * * * * * * * * * * * * * * * * * * //

dimensions      [0 2 -2 0 0 0 0];

internalField   nonuniform List<scalar> 
400
(
7.79923e-07
-0.00582865
-0.012967
-0.0184196
-0.0204373
-0.0182438
-0.0117793
-0.00148905
0.0118321
0.0271441
0.0432395
0.0588183
0.072574
0.0833038
0.0900482
0.0922623
0.0900211
0.0842392
0.0768759
0.0710624
0.00577742
-0.000222172
-0.00580829
-0.00954716
-0.0106038
-0.00843772
-0.00297508
0.00546891
0.0162977
0.0287066
0.0417448
0.0543811
0.0655817
0.0744053
0.0801156
0.082311
0.0810725
0.07705
0.0712693
0.065313
0.0133312
0.00502953
-0.000999708
-0.00442772
-0.0052777
-0.00326885
0.00159729
0.00902242
0.0184968
0.0293441
0.0407603
0.0518647
0.0617637
0.0696316
0.0748023
0.0768733
0.0758368
0.072081
0.0658005
0.0575305
0.0201354
0.00869174
0.00122142
-0.00267317
-0.0037269
-0.00189021
0.00272627
0.00977947
0.0187752
0.0290898
0.0399868
0.0506489
0.060228
0.0679111
0.0729984
0.0749967
0.0737609
0.0694511
0.0615979
0.0500974
0.024498
0.00976888
0.000585337
-0.00399154
-0.00530701
-0.00351223
0.00116976
0.00832951
0.0174568
0.0279439
0.0390798
0.0500648
0.0600438
0.0681601
0.0736214
0.0757928
0.074364
0.0692847
0.0595204
0.0445318
0.0251738
0.00714579
-0.00380643
-0.00906178
-0.0105169
-0.00850484
-0.00336175
0.00442442
0.0143083
0.0256739
0.0378086
0.0498981
0.0610429
0.070298
0.0767296
0.0795119
0.0781339
0.0723285
0.0605341
0.0418847
0.0210892
-0.000266681
-0.0129389
-0.0187139
-0.0200345
-0.0174187
-0.0113233
-0.00232465
0.00898542
0.0219711
0.0359045
0.0499392
0.063107
0.0743401
0.0825168
0.0865644
0.0857156
0.079442
0.0656152
0.0430665
0.0111384
-0.0136226
-0.0278795
-0.0338587
-0.0346081
-0.0308622
-0.0232177
-0.0123501
0.00109989
0.0164789
0.0330475
0.0499286
0.0660783
0.0802848
0.0911956
0.0974249
0.0978652
0.091631
0.0758912
0.0491113
-0.00597173
-0.0342711
-0.0498746
-0.0555531
-0.0550947
-0.0495192
-0.0395983
-0.0261182
-0.00976203
0.00881804
0.028896
0.0495885
0.0697925
0.0881495
0.103042
0.112696
0.115546
0.110187
0.0928292
0.0614064
-0.0318618
-0.0638808
-0.0804216
-0.0850118
-0.0824247
-0.0740829
-0.0609856
-0.0440414
-0.0239564
-0.00134182
0.0231407
0.0486561
0.0740907
0.0979673
0.118391
0.133121
0.139984
0.136813
0.118436
0.0819288
-0.0686721
-0.104608
-0.121349
-0.123595
-0.11752
-0.105131
-0.0877229
-0.0663302
-0.0416418
-0.0141605
0.0156007
0.0469483
0.0788509
0.109789
0.137619
0.159581
0.172722
0.173773
0.155516
0.113566
-0.119407
-0.159362
-0.17492
-0.172762
-0.161152
-0.142933
-0.119763
-0.0927816
-0.0625821
-0.0294523
0.00636839
0.0444688
0.0840504
0.123698
0.161132
0.193081
0.215663
0.224072
0.208046
0.160628
-0.188633
-0.232246
-0.243943
-0.233952
-0.213699
-0.187159
-0.156377
-0.122505
-0.0859023
-0.0464766
-0.00401894
0.0415343
0.0898376
0.139825
0.189314
0.234685
0.27107
0.29166
0.281738
0.229771
-0.283979
-0.329309
-0.331836
-0.308284
-0.274713
-0.236444
-0.195768
-0.153614
-0.109844
-0.0637492
-0.014442
0.0388593
0.0965501
0.158272
0.22237
0.285284
0.341393
0.381571
0.38491
0.33183
-0.419322
-0.459675
-0.442354
-0.395796
-0.342133
-0.287743
-0.234619
-0.182933
-0.131613
-0.0789885
-0.0232176
0.0374717
0.10455
0.178834
0.259858
0.344967
0.428613
0.499696
0.529671
0.485388
-0.620535
-0.636747
-0.57868
-0.494196
-0.411244
-0.335661
-0.267783
-0.205981
-0.14754
-0.089386
-0.0284291
0.0383452
0.113804
0.200469
0.299972
0.412022
0.533026
0.651772
0.732768
0.722392
-0.935927
-0.878518
-0.741744
-0.597951
-0.474395
-0.372662
-0.288871
-0.217765
-0.153956
-0.0924666
-0.02872
0.041693
0.123261
0.220715
0.338923
0.482152
0.651994
0.841339
1.01527
1.0975
-1.47643
-1.20663
-0.920506
-0.69139
-0.517307
-0.387546
-0.290063
-0.213339
-0.148126
-0.0872179
-0.0245801
0.045455
0.128935
0.233068
0.367101
0.542676
0.77129
1.05932
1.40328
1.73014
-2.53965
-1.63055
-1.04444
-0.710961
-0.495753
-0.352095
-0.254533
-0.183585
-0.126171
-0.0735975
-0.0192715
0.0427844
0.11921
0.21878
0.35481
0.547981
0.82639
1.23658
1.91167
2.92419
-4.36667
-2.04464
-0.973544
-0.563183
-0.357848
-0.240149
-0.170121
-0.123785
-0.0874836
-0.0535127
-0.016657
0.0276581
0.0846048
0.161727
0.272409
0.442096
0.718216
1.22571
2.41103
4.84853
)
;

boundaryField
{
    movingWall
    {
        type            zeroGradient;
    }
    fixedWalls
    {
        type            zeroGradient;
    }
    frontAndBack
    {
        type            empty;
    }
}


// ************************************************************************* //
