/*--------------------------------*- C++ -*----------------------------------*\
| =========                 |                                                 |
| \\      /  F ield         | OpenFOAM: The Open Source CFD Toolbox           |
|  \\    /   O peration     | Version:  2.4.0                                 |
|   \\  /    A nd           | Web:      www.OpenFOAM.org                      |
|    \\/     M anipulation  |                                                 |
\*---------------------------------------------------------------------------*/
FoamFile
{
    version     2.0;
    format      ascii;
    class       volScalarField;
    location    "2.1";
    object      p;
}
// * * * * * * * * * * * * * * * * * * * * * * * * * * * * * * * * * * * * * //

dimensions      [0 2 -2 0 0 0 0];

internalField   nonuniform List<scalar> 
400
(
2.17791e-06
-0.00582628
-0.0129645
-0.018417
-0.0204347
-0.0182411
-0.0117766
-0.00148631
0.0118348
0.0271467
0.0432421
0.0588208
0.0725765
0.0833064
0.0900509
0.0922651
0.0900239
0.0842419
0.0768785
0.071065
0.00577978
-0.00021962
-0.00580568
-0.00954454
-0.0106012
-0.00843515
-0.00297248
0.00547157
0.0163004
0.0287093
0.0417475
0.0543837
0.0655843
0.0744078
0.0801182
0.0823137
0.0810752
0.0770527
0.0712719
0.0653156
0.0133338
0.00503213
-0.000997061
-0.00442505
-0.00527507
-0.00326627
0.00159984
0.009025
0.0184995
0.0293468
0.0407631
0.0518674
0.0617663
0.0696342
0.0748049
0.0768759
0.0758394
0.0720837
0.0658032
0.0575332
0.020138
0.00869433
0.00122406
-0.00267047
-0.0037242
-0.00188757
0.00272884
0.009782
0.0187778
0.0290925
0.0399895
0.0506517
0.0602307
0.0679138
0.073001
0.0749992
0.0737635
0.0694538
0.0616006
0.0501001
0.0245006
0.00977145
0.00058794
-0.00398886
-0.00530428
-0.00350951
0.0011724
0.00833206
0.0174594
0.0279464
0.0390824
0.0500675
0.0600466
0.0681628
0.0736241
0.0757954
0.0743666
0.0692873
0.0595231
0.0445345
0.0251764
0.00714837
-0.00380387
-0.00905917
-0.0105142
-0.00850208
-0.00335902
0.00442706
0.0143108
0.0256764
0.0378112
0.0499008
0.0610457
0.0703008
0.0767323
0.0795145
0.0781365
0.0723311
0.0605367
0.0418874
0.021092
-0.000264053
-0.0129364
-0.0187113
-0.0200319
-0.017416
-0.0113205
-0.00232192
0.00898807
0.0219737
0.0359071
0.0499418
0.0631096
0.0743428
0.0825195
0.0865671
0.0857183
0.0794446
0.0656178
0.0430691
0.0111411
-0.0136199
-0.0278769
-0.0338562
-0.0346056
-0.0308596
-0.023215
-0.0123473
0.00110262
0.0164815
0.0330501
0.0499311
0.0660808
0.0802874
0.0911983
0.0974277
0.0978679
0.0916336
0.0758938
0.0491139
-0.00596902
-0.0342683
-0.0498719
-0.0555506
-0.0550922
-0.0495167
-0.0395956
-0.0261154
-0.00975926
0.00882078
0.0288987
0.0495911
0.069795
0.0881521
0.103045
0.112699
0.115548
0.110189
0.0928319
0.061409
-0.0318592
-0.0638781
-0.0804188
-0.0850091
-0.0824221
-0.0740804
-0.0609831
-0.0440388
-0.0239537
-0.00133905
0.0231434
0.0486588
0.0740933
0.0979699
0.118394
0.133123
0.139986
0.136816
0.118438
0.0819315
-0.0686695
-0.104605
-0.121346
-0.123592
-0.117517
-0.105129
-0.0877204
-0.0663277
-0.0416392
-0.0141577
0.0156035
0.0469511
0.0788536
0.109791
0.137622
0.159583
0.172725
0.173776
0.155518
0.113569
-0.119404
-0.159359
-0.174917
-0.172759
-0.16115
-0.142931
-0.119761
-0.092779
-0.0625795
-0.0294497
0.00637108
0.0444715
0.0840531
0.123701
0.161134
0.193084
0.215666
0.224075
0.208049
0.160631
-0.18863
-0.232244
-0.24394
-0.23395
-0.213696
-0.187156
-0.156374
-0.122503
-0.0858997
-0.046474
-0.00401633
0.041537
0.0898403
0.139828
0.189317
0.234687
0.271073
0.291662
0.281741
0.229774
-0.283976
-0.329306
-0.331833
-0.308281
-0.27471
-0.236441
-0.195766
-0.153611
-0.109841
-0.0637467
-0.0144394
0.0388619
0.0965528
0.158275
0.222373
0.285286
0.341396
0.381574
0.384913
0.331833
-0.41932
-0.459672
-0.442352
-0.395793
-0.34213
-0.28774
-0.234617
-0.182931
-0.13161
-0.0789859
-0.023215
0.0374743
0.104552
0.178837
0.25986
0.344969
0.428615
0.499699
0.529674
0.48539
-0.620532
-0.636744
-0.578678
-0.494194
-0.411241
-0.335659
-0.267781
-0.205978
-0.147537
-0.0893833
-0.0284264
0.0383479
0.113806
0.200471
0.299975
0.412025
0.533029
0.651775
0.732771
0.722395
-0.935924
-0.878515
-0.741742
-0.597948
-0.474393
-0.372659
-0.288868
-0.217763
-0.153953
-0.0924639
-0.0287173
0.0416957
0.123263
0.220718
0.338926
0.482155
0.651997
0.841342
1.01527
1.0975
-1.47642
-1.20663
-0.920503
-0.691387
-0.517304
-0.387543
-0.290061
-0.213337
-0.148124
-0.0872153
-0.0245774
0.0454576
0.128938
0.233071
0.367103
0.542678
0.771293
1.05932
1.40329
1.73014
-2.53965
-1.63055
-1.04444
-0.710958
-0.49575
-0.352093
-0.25453
-0.183583
-0.126169
-0.0735949
-0.0192689
0.042787
0.119212
0.218783
0.354812
0.547984
0.826393
1.23658
1.91168
2.92419
-4.36666
-2.04463
-0.973542
-0.56318
-0.357846
-0.240146
-0.170119
-0.123782
-0.0874809
-0.0535101
-0.0166543
0.0276607
0.0846075
0.16173
0.272411
0.442099
0.718219
1.22571
2.41103
4.84853
)
;

boundaryField
{
    movingWall
    {
        type            zeroGradient;
    }
    fixedWalls
    {
        type            zeroGradient;
    }
    frontAndBack
    {
        type            empty;
    }
}


// ************************************************************************* //
