/*--------------------------------*- C++ -*----------------------------------*\
| =========                 |                                                 |
| \\      /  F ield         | OpenFOAM: The Open Source CFD Toolbox           |
|  \\    /   O peration     | Version:  2.4.0                                 |
|   \\  /    A nd           | Web:      www.OpenFOAM.org                      |
|    \\/     M anipulation  |                                                 |
\*---------------------------------------------------------------------------*/
FoamFile
{
    version     2.0;
    format      ascii;
    class       volScalarField;
    location    "1.6";
    object      p;
}
// * * * * * * * * * * * * * * * * * * * * * * * * * * * * * * * * * * * * * //

dimensions      [0 2 -2 0 0 0 0];

internalField   nonuniform List<scalar> 
400
(
2.67923e-06
-0.00582544
-0.0129636
-0.0184161
-0.0204338
-0.0182401
-0.0117756
-0.00148536
0.0118358
0.0271476
0.043243
0.0588218
0.0725775
0.0833075
0.0900519
0.092266
0.0900248
0.0842427
0.0768794
0.0710658
0.00578064
-0.000218711
-0.00580477
-0.00954364
-0.0106003
-0.00843419
-0.00297149
0.00547257
0.0163014
0.0287102
0.0417484
0.0543846
0.0655852
0.0744088
0.0801192
0.0823147
0.0810762
0.0770537
0.0712729
0.0653165
0.0133347
0.00503307
-0.000996127
-0.00442415
-0.00527418
-0.00326536
0.0016008
0.009026
0.0185005
0.0293478
0.040764
0.0518683
0.0617672
0.0696351
0.0748058
0.0768769
0.0758405
0.0720847
0.0658042
0.0575341
0.020139
0.00869529
0.00122503
-0.00266953
-0.00372331
-0.00188669
0.00272974
0.00978296
0.0187788
0.0290935
0.0399905
0.0506526
0.0602316
0.0679146
0.0730019
0.0750002
0.0737645
0.0694548
0.0616016
0.050101
0.0245015
0.00977241
0.00058893
-0.00398788
-0.00530334
-0.00350862
0.00117327
0.00833296
0.0174603
0.0279475
0.0390835
0.0500685
0.0600475
0.0681637
0.073625
0.0757963
0.0743675
0.0692883
0.0595241
0.0445355
0.0251773
0.0071493
-0.0038029
-0.00905816
-0.0105132
-0.00850114
-0.00335814
0.00442792
0.0143117
0.0256774
0.0378122
0.0499018
0.0610467
0.0703017
0.0767332
0.0795154
0.0781374
0.072332
0.0605377
0.0418884
0.0210929
-0.000263149
-0.0129354
-0.0187103
-0.0200308
-0.017415
-0.0113196
-0.00232104
0.00898892
0.0219746
0.035908
0.0499428
0.0631107
0.0743438
0.0825205
0.086568
0.0857192
0.0794455
0.0656188
0.0430701
0.0111421
-0.013619
-0.027876
-0.0338553
-0.0346046
-0.0308586
-0.023214
-0.0123464
0.0011035
0.0164824
0.033051
0.049932
0.0660818
0.0802884
0.0911993
0.0974286
0.0978688
0.0916345
0.0758947
0.0491149
-0.00596802
-0.0342674
-0.049871
-0.0555497
-0.0550912
-0.0495157
-0.0395946
-0.0261144
-0.00975831
0.00882167
0.0288995
0.049592
0.069796
0.0881531
0.103046
0.1127
0.115549
0.11019
0.0928328
0.0614099
-0.0318582
-0.0638771
-0.0804179
-0.0850082
-0.0824212
-0.0740795
-0.060982
-0.0440377
-0.0239526
-0.0013381
0.0231443
0.0486596
0.0740942
0.0979708
0.118395
0.133124
0.139987
0.136817
0.118439
0.0819324
-0.0686685
-0.104604
-0.121345
-0.123591
-0.117517
-0.105128
-0.0877194
-0.0663267
-0.0416381
-0.0141567
0.0156044
0.046952
0.0788545
0.109792
0.137622
0.159584
0.172726
0.173777
0.155519
0.11357
-0.119404
-0.159358
-0.174916
-0.172758
-0.161149
-0.14293
-0.11976
-0.0927781
-0.0625785
-0.0294487
0.00637209
0.0444725
0.0840541
0.123702
0.161135
0.193085
0.215667
0.224076
0.208049
0.160631
-0.188629
-0.232243
-0.243939
-0.233949
-0.213695
-0.187155
-0.156373
-0.122502
-0.0858988
-0.0464731
-0.00401532
0.041538
0.0898413
0.139828
0.189318
0.234688
0.271074
0.291663
0.281742
0.229775
-0.283975
-0.329305
-0.331832
-0.30828
-0.274709
-0.23644
-0.195765
-0.15361
-0.109841
-0.0637457
-0.0144384
0.0388629
0.0965538
0.158276
0.222374
0.285287
0.341397
0.381575
0.384914
0.331834
-0.419319
-0.459671
-0.442351
-0.395792
-0.342129
-0.287739
-0.234616
-0.18293
-0.131609
-0.078985
-0.0232141
0.0374752
0.104553
0.178838
0.259861
0.34497
0.428616
0.4997
0.529675
0.485391
-0.620531
-0.636743
-0.578677
-0.494193
-0.41124
-0.335658
-0.26778
-0.205977
-0.147536
-0.0893824
-0.0284255
0.0383488
0.113807
0.200472
0.299976
0.412026
0.53303
0.651776
0.732772
0.722396
-0.935923
-0.878514
-0.741741
-0.597948
-0.474392
-0.372658
-0.288867
-0.217762
-0.153952
-0.0924629
-0.0287163
0.0416966
0.123264
0.220719
0.338927
0.482156
0.651998
0.841342
1.01527
1.0975
-1.47642
-1.20663
-0.920502
-0.691387
-0.517304
-0.387543
-0.29006
-0.213336
-0.148123
-0.0872143
-0.0245765
0.0454586
0.128938
0.233072
0.367104
0.542679
0.771294
1.05932
1.40329
1.73014
-2.53965
-1.63055
-1.04444
-0.710957
-0.495749
-0.352092
-0.254529
-0.183582
-0.126168
-0.0735939
-0.0192679
0.042788
0.119213
0.218784
0.354813
0.547985
0.826394
1.23658
1.91168
2.92419
-4.36666
-2.04463
-0.973541
-0.563179
-0.357845
-0.240145
-0.170118
-0.123782
-0.08748
-0.0535091
-0.0166534
0.0276617
0.0846084
0.161731
0.272412
0.4421
0.71822
1.22571
2.41104
4.84853
)
;

boundaryField
{
    movingWall
    {
        type            zeroGradient;
    }
    fixedWalls
    {
        type            zeroGradient;
    }
    frontAndBack
    {
        type            empty;
    }
}


// ************************************************************************* //
