/*--------------------------------*- C++ -*----------------------------------*\
| =========                 |                                                 |
| \\      /  F ield         | OpenFOAM: The Open Source CFD Toolbox           |
|  \\    /   O peration     | Version:  2.4.0                                 |
|   \\  /    A nd           | Web:      www.OpenFOAM.org                      |
|    \\/     M anipulation  |                                                 |
\*---------------------------------------------------------------------------*/
FoamFile
{
    version     2.0;
    format      ascii;
    class       volScalarField;
    location    "1.7";
    object      p;
}
// * * * * * * * * * * * * * * * * * * * * * * * * * * * * * * * * * * * * * //

dimensions      [0 2 -2 0 0 0 0];

internalField   nonuniform List<scalar> 
400
(
2.57286e-06
-0.00582561
-0.0129637
-0.0184162
-0.0204339
-0.0182404
-0.0117759
-0.00148563
0.0118355
0.0271475
0.0432429
0.0588216
0.0725773
0.0833072
0.0900515
0.0922657
0.0900246
0.0842426
0.0768794
0.0710658
0.00578046
-0.000218926
-0.00580497
-0.0095438
-0.0106004
-0.00843434
-0.0029717
0.0054723
0.0163011
0.02871
0.0417482
0.0543845
0.0655851
0.0744086
0.080119
0.0823144
0.0810759
0.0770534
0.0712727
0.0653164
0.0133345
0.00503284
-0.000996372
-0.00442436
-0.00527433
-0.00326547
0.00160067
0.0090258
0.0185002
0.0293475
0.0407637
0.0518681
0.0617671
0.069635
0.0748057
0.0768767
0.0758402
0.0720844
0.0658039
0.0575339
0.0201388
0.00869508
0.00122477
-0.00266979
-0.00372352
-0.00188682
0.00272965
0.00978284
0.0187786
0.0290932
0.0399902
0.0506524
0.0602314
0.0679145
0.0730018
0.0750001
0.0737643
0.0694545
0.0616013
0.0501008
0.0245014
0.00977225
0.0005887
-0.00398816
-0.00530362
-0.00350882
0.00117316
0.00833289
0.0174602
0.0279472
0.0390832
0.0500682
0.0600472
0.0681635
0.0736249
0.0757962
0.0743674
0.0692881
0.0595238
0.0445352
0.0251772
0.00714917
-0.00380306
-0.00905841
-0.0105135
-0.00850143
-0.00335834
0.00442782
0.0143117
0.0256773
0.037812
0.0499015
0.0610463
0.0703014
0.076733
0.0795153
0.0781373
0.0723319
0.0605375
0.0418881
0.0210927
-0.000263281
-0.0129355
-0.0187105
-0.0200311
-0.0174153
-0.0113199
-0.00232124
0.00898883
0.0219745
0.0359079
0.0499426
0.0631104
0.0743435
0.0825202
0.0865678
0.0857191
0.0794454
0.0656186
0.0430698
0.0111418
-0.0136192
-0.0278761
-0.0338554
-0.0346047
-0.0308588
-0.0232143
-0.0123467
0.0011033
0.0164823
0.0330509
0.0499319
0.0660817
0.0802882
0.091199
0.0974283
0.0978686
0.0916344
0.0758946
0.0491147
-0.00596832
-0.0342676
-0.0498712
-0.0555498
-0.0550913
-0.0495159
-0.0395949
-0.0261148
-0.00975862
0.00882146
0.0288994
0.0495919
0.0697959
0.0881529
0.103046
0.1127
0.115549
0.11019
0.0928326
0.0614098
-0.0318584
-0.0638774
-0.0804182
-0.0850084
-0.0824213
-0.0740796
-0.0609822
-0.044038
-0.023953
-0.0013384
0.0231441
0.0486595
0.0740941
0.0979707
0.118394
0.133124
0.139987
0.136816
0.118439
0.0819323
-0.0686687
-0.104605
-0.121346
-0.123591
-0.117517
-0.105128
-0.0877195
-0.0663268
-0.0416384
-0.0141571
0.0156041
0.0469518
0.0788543
0.109792
0.137622
0.159584
0.172725
0.173777
0.155519
0.113569
-0.119404
-0.159358
-0.174916
-0.172758
-0.161149
-0.14293
-0.11976
-0.0927782
-0.0625787
-0.029449
0.00637178
0.0444722
0.0840538
0.123702
0.161135
0.193085
0.215667
0.224076
0.208049
0.160631
-0.188629
-0.232243
-0.24394
-0.233949
-0.213695
-0.187155
-0.156373
-0.122502
-0.0858989
-0.0464732
-0.00401555
0.0415377
0.089841
0.139828
0.189318
0.234688
0.271073
0.291663
0.281742
0.229775
-0.283975
-0.329305
-0.331832
-0.308281
-0.274709
-0.23644
-0.195765
-0.153611
-0.109841
-0.0637458
-0.0144386
0.0388627
0.0965535
0.158276
0.222373
0.285287
0.341396
0.381574
0.384913
0.331833
-0.419319
-0.459671
-0.442351
-0.395792
-0.342129
-0.28774
-0.234616
-0.18293
-0.131609
-0.0789851
-0.0232142
0.0374751
0.104553
0.178837
0.259861
0.34497
0.428616
0.4997
0.529675
0.485391
-0.620532
-0.636744
-0.578677
-0.494193
-0.41124
-0.335658
-0.26778
-0.205977
-0.147536
-0.0893826
-0.0284257
0.0383486
0.113807
0.200472
0.299975
0.412025
0.53303
0.651775
0.732772
0.722396
-0.935923
-0.878514
-0.741741
-0.597948
-0.474392
-0.372658
-0.288868
-0.217762
-0.153953
-0.0924632
-0.0287166
0.0416964
0.123264
0.220719
0.338927
0.482155
0.651997
0.841342
1.01527
1.0975
-1.47642
-1.20663
-0.920502
-0.691387
-0.517304
-0.387543
-0.29006
-0.213336
-0.148123
-0.0872145
-0.0245767
0.0454584
0.128938
0.233072
0.367104
0.542679
0.771294
1.05932
1.40329
1.73014
-2.53965
-1.63055
-1.04444
-0.710958
-0.495749
-0.352092
-0.254529
-0.183582
-0.126168
-0.0735941
-0.0192681
0.0427878
0.119213
0.218783
0.354813
0.547985
0.826394
1.23658
1.91168
2.92419
-4.36666
-2.04463
-0.973541
-0.563179
-0.357845
-0.240145
-0.170118
-0.123782
-0.0874802
-0.0535093
-0.0166536
0.0276615
0.0846082
0.16173
0.272412
0.4421
0.71822
1.22571
2.41104
4.84853
)
;

boundaryField
{
    movingWall
    {
        type            zeroGradient;
    }
    fixedWalls
    {
        type            zeroGradient;
    }
    frontAndBack
    {
        type            empty;
    }
}


// ************************************************************************* //
