/*--------------------------------*- C++ -*----------------------------------*\
| =========                 |                                                 |
| \\      /  F ield         | OpenFOAM: The Open Source CFD Toolbox           |
|  \\    /   O peration     | Version:  2.4.0                                 |
|   \\  /    A nd           | Web:      www.OpenFOAM.org                      |
|    \\/     M anipulation  |                                                 |
\*---------------------------------------------------------------------------*/
FoamFile
{
    version     2.0;
    format      ascii;
    class       volScalarField;
    location    "5";
    object      p;
}
// * * * * * * * * * * * * * * * * * * * * * * * * * * * * * * * * * * * * * //

dimensions      [0 2 -2 0 0 0 0];

internalField   nonuniform List<scalar> 
400
(
6.96339e-07
-0.00582879
-0.0129672
-0.0184198
-0.0204375
-0.0182439
-0.0117794
-0.00148915
0.011832
0.0271439
0.0432393
0.058818
0.0725737
0.0833036
0.090048
0.0922622
0.090021
0.0842391
0.0768758
0.0710622
0.00577727
-0.00022231
-0.00580843
-0.0095473
-0.010604
-0.00843792
-0.00297527
0.00546875
0.0162975
0.0287065
0.0417447
0.0543809
0.0655815
0.074405
0.0801154
0.0823109
0.0810724
0.0770499
0.0712691
0.0653129
0.0133311
0.00502938
-0.000999834
-0.00442784
-0.00527785
-0.00326904
0.00159708
0.00902221
0.0184967
0.029344
0.0407602
0.0518646
0.0617635
0.0696314
0.0748021
0.0768731
0.0758366
0.0720808
0.0658004
0.0575304
0.0201353
0.00869156
0.00122127
-0.00267328
-0.00372701
-0.00189036
0.00272607
0.00977924
0.018775
0.0290896
0.0399867
0.0506488
0.0602279
0.067911
0.0729982
0.0749965
0.0737607
0.0694509
0.0615977
0.0500972
0.0244978
0.00976869
0.000585156
-0.00399168
-0.00530711
-0.00351233
0.00116962
0.0083293
0.0174566
0.0279437
0.0390796
0.0500646
0.0600437
0.06816
0.0736213
0.0757926
0.0743638
0.0692845
0.0595202
0.0445317
0.0251736
0.00714559
-0.00380664
-0.00906197
-0.010517
-0.00850493
-0.00336185
0.00442427
0.0143081
0.0256736
0.0378084
0.0498979
0.0610428
0.0702979
0.0767295
0.0795117
0.0781337
0.0723283
0.0605339
0.0418846
0.0210891
-0.000266844
-0.0129391
-0.0187141
-0.0200347
-0.0174188
-0.0113234
-0.00232475
0.00898528
0.0219709
0.0359043
0.049939
0.0631068
0.07434
0.0825166
0.0865643
0.0857155
0.0794418
0.065615
0.0430663
0.0111383
-0.0136228
-0.0278797
-0.033859
-0.0346084
-0.0308624
-0.0232178
-0.0123502
0.00109979
0.0164788
0.0330473
0.0499283
0.0660781
0.0802846
0.0911955
0.0974248
0.0978651
0.0916308
0.075891
0.0491111
-0.00597187
-0.0342712
-0.0498747
-0.0555533
-0.0550949
-0.0495195
-0.0395985
-0.0261183
-0.00976211
0.00881795
0.0288959
0.0495883
0.0697923
0.0881493
0.103042
0.112696
0.115545
0.110187
0.0928291
0.0614062
-0.031862
-0.063881
-0.0804217
-0.0850119
-0.0824249
-0.0740832
-0.0609858
-0.0440416
-0.0239565
-0.0013419
0.0231406
0.0486559
0.0740905
0.0979671
0.118391
0.133121
0.139983
0.136813
0.118436
0.0819287
-0.0686723
-0.104608
-0.121349
-0.123595
-0.11752
-0.105131
-0.0877231
-0.0663304
-0.041642
-0.0141606
0.0156006
0.0469482
0.0788508
0.109789
0.137619
0.159581
0.172722
0.173773
0.155516
0.113566
-0.119407
-0.159362
-0.17492
-0.172762
-0.161153
-0.142934
-0.119764
-0.0927818
-0.0625823
-0.0294525
0.00636825
0.0444686
0.0840503
0.123698
0.161131
0.193081
0.215663
0.224072
0.208046
0.160628
-0.188633
-0.232247
-0.243943
-0.233952
-0.213699
-0.187159
-0.156377
-0.122506
-0.0859025
-0.0464768
-0.00401913
0.0415342
0.0898375
0.139825
0.189314
0.234685
0.27107
0.29166
0.281738
0.229771
-0.283979
-0.329309
-0.331836
-0.308284
-0.274713
-0.236444
-0.195769
-0.153614
-0.109844
-0.0637494
-0.0144422
0.0388591
0.09655
0.158272
0.22237
0.285284
0.341393
0.381571
0.38491
0.33183
-0.419323
-0.459675
-0.442354
-0.395796
-0.342133
-0.287743
-0.234619
-0.182933
-0.131613
-0.0789887
-0.0232178
0.0374715
0.104549
0.178834
0.259857
0.344966
0.428612
0.499696
0.529671
0.485388
-0.620535
-0.636747
-0.57868
-0.494196
-0.411244
-0.335661
-0.267784
-0.205981
-0.14754
-0.0893861
-0.0284292
0.0383451
0.113804
0.200468
0.299972
0.412022
0.533026
0.651772
0.732768
0.722392
-0.935927
-0.878518
-0.741744
-0.597951
-0.474396
-0.372662
-0.288871
-0.217765
-0.153956
-0.0924667
-0.0287201
0.0416929
0.123261
0.220715
0.338923
0.482152
0.651994
0.841339
1.01527
1.0975
-1.47643
-1.20663
-0.920506
-0.69139
-0.517307
-0.387546
-0.290064
-0.21334
-0.148126
-0.0872181
-0.0245803
0.0454548
0.128935
0.233068
0.3671
0.542675
0.77129
1.05932
1.40328
1.73014
-2.53965
-1.63055
-1.04444
-0.710961
-0.495753
-0.352095
-0.254533
-0.183586
-0.126172
-0.0735977
-0.0192717
0.0427842
0.11921
0.21878
0.354809
0.547981
0.82639
1.23658
1.91167
2.92419
-4.36667
-2.04464
-0.973544
-0.563183
-0.357848
-0.240149
-0.170122
-0.123785
-0.0874837
-0.0535128
-0.0166571
0.0276579
0.0846047
0.161727
0.272408
0.442096
0.718216
1.22571
2.41103
4.84853
)
;

boundaryField
{
    movingWall
    {
        type            zeroGradient;
    }
    fixedWalls
    {
        type            zeroGradient;
    }
    frontAndBack
    {
        type            empty;
    }
}


// ************************************************************************* //
