/*--------------------------------*- C++ -*----------------------------------*\
| =========                 |                                                 |
| \\      /  F ield         | OpenFOAM: The Open Source CFD Toolbox           |
|  \\    /   O peration     | Version:  2.4.0                                 |
|   \\  /    A nd           | Web:      www.OpenFOAM.org                      |
|    \\/     M anipulation  |                                                 |
\*---------------------------------------------------------------------------*/
FoamFile
{
    version     2.0;
    format      ascii;
    class       volScalarField;
    location    "1.2";
    object      p;
}
// * * * * * * * * * * * * * * * * * * * * * * * * * * * * * * * * * * * * * //

dimensions      [0 2 -2 0 0 0 0];

internalField   nonuniform List<scalar> 
400
(
3.1779e-06
-0.0058246
-0.0129626
-0.0184151
-0.0204328
-0.0182392
-0.0117746
-0.00148446
0.0118366
0.0271485
0.0432439
0.0588228
0.0725785
0.0833085
0.0900528
0.0922669
0.0900257
0.0842437
0.0768804
0.0710668
0.0057815
-0.000217823
-0.00580388
-0.00954273
-0.0105993
-0.0084332
-0.00297049
0.00547353
0.0163023
0.0287111
0.0417493
0.0543856
0.0655862
0.0744098
0.0801202
0.0823157
0.0810771
0.0770546
0.0712738
0.0653175
0.0133357
0.005034
-0.000995231
-0.00442326
-0.00527327
-0.0032644
0.00160181
0.00902702
0.0185015
0.0293487
0.0407649
0.0518692
0.0617681
0.0696361
0.0748068
0.0768779
0.0758414
0.0720856
0.0658051
0.057535
0.0201399
0.00869626
0.00122596
-0.00266864
-0.00372243
-0.00188578
0.00273071
0.00978398
0.0187798
0.0290945
0.0399914
0.0506535
0.0602325
0.0679156
0.0730029
0.0750012
0.0737655
0.0694558
0.0616025
0.0501019
0.0245024
0.0097734
0.000589912
-0.00398694
-0.00530246
-0.00350775
0.00117418
0.00833394
0.0174614
0.0279485
0.0390844
0.0500694
0.0600484
0.0681646
0.0736259
0.0757973
0.0743685
0.0692893
0.059525
0.0445364
0.0251783
0.00715027
-0.00380189
-0.00905717
-0.0105123
-0.00850027
-0.00335729
0.00442883
0.0143127
0.0256784
0.0378132
0.0499028
0.0610476
0.0703026
0.0767341
0.0795163
0.0781384
0.072333
0.0605387
0.0418893
0.0210938
-0.000262215
-0.0129344
-0.0187093
-0.0200298
-0.0174141
-0.0113187
-0.00232019
0.00898983
0.0219756
0.0359091
0.0499438
0.0631117
0.0743448
0.0825213
0.0865689
0.0857201
0.0794465
0.0656198
0.043071
0.011143
-0.0136182
-0.0278751
-0.0338543
-0.0346035
-0.0308576
-0.023213
-0.0123455
0.00110435
0.0164833
0.0330519
0.0499331
0.0660829
0.0802894
0.0912002
0.0974295
0.0978697
0.0916355
0.0758957
0.0491159
-0.00596708
-0.0342665
-0.0498702
-0.0555487
-0.0550902
-0.0495146
-0.0395936
-0.0261135
-0.00975745
0.00882252
0.0289004
0.0495929
0.069797
0.0881541
0.103047
0.112701
0.11555
0.110191
0.0928337
0.0614109
-0.0318572
-0.0638762
-0.0804171
-0.0850074
-0.0824203
-0.0740785
-0.060981
-0.0440367
-0.0239517
-0.00133723
0.0231452
0.0486605
0.0740951
0.0979718
0.118396
0.133125
0.139988
0.136818
0.11844
0.0819334
-0.0686675
-0.104603
-0.121345
-0.12359
-0.117516
-0.105127
-0.0877184
-0.0663256
-0.0416371
-0.0141558
0.0156053
0.0469529
0.0788554
0.109793
0.137623
0.159585
0.172727
0.173778
0.15552
0.113571
-0.119402
-0.159357
-0.174915
-0.172757
-0.161148
-0.142929
-0.119759
-0.0927771
-0.0625775
-0.0294477
0.00637304
0.0444734
0.0840549
0.123703
0.161136
0.193086
0.215668
0.224077
0.20805
0.160632
-0.188628
-0.232242
-0.243938
-0.233948
-0.213694
-0.187154
-0.156372
-0.122501
-0.0858978
-0.046472
-0.00401432
0.041539
0.0898422
0.139829
0.189319
0.234689
0.271075
0.291664
0.281743
0.229776
-0.283974
-0.329304
-0.331831
-0.308279
-0.274708
-0.236439
-0.195764
-0.15361
-0.10984
-0.0637448
-0.0144374
0.0388639
0.0965548
0.158277
0.222375
0.285288
0.341398
0.381575
0.384914
0.331835
-0.419318
-0.45967
-0.44235
-0.395791
-0.342128
-0.287738
-0.234615
-0.182929
-0.131608
-0.0789841
-0.0232131
0.0374762
0.104554
0.178839
0.259862
0.344971
0.428617
0.499701
0.529676
0.485392
-0.620531
-0.636743
-0.578676
-0.494192
-0.411239
-0.335657
-0.267779
-0.205976
-0.147535
-0.0893815
-0.0284246
0.0383497
0.113808
0.200473
0.299977
0.412027
0.533031
0.651776
0.732773
0.722397
-0.935922
-0.878513
-0.74174
-0.597947
-0.474391
-0.372657
-0.288866
-0.217761
-0.153951
-0.092462
-0.0287154
0.0416975
0.123265
0.22072
0.338928
0.482157
0.651998
0.841343
1.01527
1.09751
-1.47642
-1.20663
-0.920501
-0.691386
-0.517303
-0.387542
-0.290059
-0.213335
-0.148122
-0.0872133
-0.0245755
0.0454595
0.128939
0.233073
0.367105
0.54268
0.771295
1.05932
1.40329
1.73014
-2.53965
-1.63055
-1.04444
-0.710956
-0.495748
-0.352091
-0.254528
-0.183581
-0.126167
-0.073593
-0.0192669
0.0427889
0.119214
0.218785
0.354814
0.547986
0.826395
1.23658
1.91168
2.92419
-4.36666
-2.04463
-0.97354
-0.563178
-0.357844
-0.240144
-0.170117
-0.123781
-0.0874791
-0.0535082
-0.0166524
0.0276626
0.0846094
0.161731
0.272413
0.442101
0.718221
1.22571
2.41104
4.84853
)
;

boundaryField
{
    movingWall
    {
        type            zeroGradient;
    }
    fixedWalls
    {
        type            zeroGradient;
    }
    frontAndBack
    {
        type            empty;
    }
}


// ************************************************************************* //
