/*--------------------------------*- C++ -*----------------------------------*\
| =========                 |                                                 |
| \\      /  F ield         | OpenFOAM: The Open Source CFD Toolbox           |
|  \\    /   O peration     | Version:  2.4.0                                 |
|   \\  /    A nd           | Web:      www.OpenFOAM.org                      |
|    \\/     M anipulation  |                                                 |
\*---------------------------------------------------------------------------*/
FoamFile
{
    version     2.0;
    format      ascii;
    class       volScalarField;
    location    "3.1";
    object      p;
}
// * * * * * * * * * * * * * * * * * * * * * * * * * * * * * * * * * * * * * //

dimensions      [0 2 -2 0 0 0 0];

internalField   nonuniform List<scalar> 
400
(
1.46139e-06
-0.0058275
-0.0129658
-0.0184184
-0.0204361
-0.0182424
-0.0117779
-0.00148766
0.0118335
0.0271453
0.0432407
0.0588194
0.0725752
0.0833051
0.0900495
0.0922637
0.0900225
0.0842404
0.0768771
0.0710635
0.00577858
-0.000220912
-0.00580702
-0.00954591
-0.0106026
-0.0084365
-0.0029738
0.00547026
0.016299
0.0287079
0.0417461
0.0543823
0.0655829
0.0744065
0.0801169
0.0823124
0.0810739
0.0770514
0.0712706
0.0653142
0.0133325
0.00503082
-0.000998384
-0.00442641
-0.00527646
-0.00326766
0.00159849
0.00902369
0.0184982
0.0293455
0.0407617
0.051866
0.0617649
0.0696328
0.0748035
0.0768746
0.0758381
0.0720824
0.0658019
0.0575318
0.0201367
0.00869301
0.00122275
-0.0026718
-0.00372559
-0.00188898
0.00272744
0.00978064
0.0187765
0.0290912
0.0399882
0.0506503
0.0602293
0.0679123
0.0729996
0.0749979
0.0737622
0.0694525
0.0615993
0.0500987
0.0244992
0.00977011
0.000586636
-0.00399017
-0.00530562
-0.0035109
0.00117098
0.00833065
0.017458
0.0279451
0.0390812
0.0500662
0.0600452
0.0681614
0.0736227
0.075794
0.0743652
0.069286
0.0595217
0.0445332
0.025175
0.00714699
-0.0038052
-0.00906047
-0.0105155
-0.00850343
-0.00336043
0.00442563
0.0143094
0.025675
0.0378099
0.0498995
0.0610444
0.0702994
0.0767309
0.0795131
0.0781351
0.0723297
0.0605354
0.0418861
0.0210906
-0.000265455
-0.0129377
-0.0187126
-0.0200332
-0.0174173
-0.0113218
-0.00232333
0.00898663
0.0219723
0.0359057
0.0499405
0.0631084
0.0743415
0.0825182
0.0865657
0.0857169
0.0794432
0.0656165
0.0430677
0.0111398
-0.0136214
-0.0278783
-0.0338576
-0.0346069
-0.0308609
-0.0232163
-0.0123487
0.00110121
0.0164801
0.0330487
0.0499297
0.0660795
0.0802861
0.091197
0.0974263
0.0978665
0.0916322
0.0758924
0.0491126
-0.00597033
-0.0342697
-0.0498733
-0.055552
-0.0550936
-0.049518
-0.0395969
-0.0261167
-0.0097606
0.00881938
0.0288972
0.0495897
0.0697937
0.0881508
0.103044
0.112697
0.115547
0.110188
0.0928305
0.0614076
-0.0318605
-0.0638794
-0.0804202
-0.0850105
-0.0824236
-0.0740818
-0.0609844
-0.0440401
-0.0239549
-0.00134039
0.023142
0.0486573
0.0740919
0.0979685
0.118392
0.133122
0.139985
0.136814
0.118437
0.0819301
-0.0686708
-0.104607
-0.121348
-0.123593
-0.117519
-0.10513
-0.0877217
-0.066329
-0.0416404
-0.014159
0.0156021
0.0469497
0.0788522
0.10979
0.13762
0.159582
0.172723
0.173775
0.155517
0.113567
-0.119406
-0.15936
-0.174918
-0.17276
-0.161151
-0.142932
-0.119762
-0.0927804
-0.0625808
-0.029451
0.00636978
0.0444702
0.0840518
0.1237
0.161133
0.193083
0.215665
0.224074
0.208047
0.160629
-0.188632
-0.232245
-0.243942
-0.233951
-0.213697
-0.187157
-0.156376
-0.122504
-0.0859011
-0.0464754
-0.00401764
0.0415357
0.089839
0.139826
0.189316
0.234686
0.271071
0.291661
0.28174
0.229773
-0.283978
-0.329308
-0.331835
-0.308283
-0.274711
-0.236442
-0.195767
-0.153613
-0.109843
-0.063748
-0.0144408
0.0388606
0.0965515
0.158274
0.222371
0.285285
0.341394
0.381572
0.384911
0.331831
-0.419321
-0.459674
-0.442353
-0.395795
-0.342131
-0.287742
-0.234618
-0.182932
-0.131612
-0.0789873
-0.0232164
0.0374729
0.104551
0.178835
0.259859
0.344968
0.428614
0.499698
0.529673
0.485389
-0.620534
-0.636746
-0.578679
-0.494195
-0.411242
-0.33566
-0.267782
-0.205979
-0.147538
-0.0893847
-0.0284278
0.0383465
0.113805
0.20047
0.299973
0.412023
0.533028
0.651773
0.73277
0.722394
-0.935925
-0.878516
-0.741743
-0.59795
-0.474394
-0.37266
-0.28887
-0.217764
-0.153955
-0.0924652
-0.0287186
0.0416943
0.123262
0.220717
0.338924
0.482153
0.651995
0.84134
1.01527
1.0975
-1.47642
-1.20663
-0.920504
-0.691389
-0.517306
-0.387545
-0.290062
-0.213338
-0.148125
-0.0872166
-0.0245788
0.0454563
0.128936
0.23307
0.367102
0.542677
0.771292
1.05932
1.40329
1.73014
-2.53965
-1.63055
-1.04444
-0.71096
-0.495751
-0.352094
-0.254532
-0.183584
-0.12617
-0.0735962
-0.0192702
0.0427857
0.119211
0.218781
0.354811
0.547983
0.826392
1.23658
1.91168
2.92419
-4.36667
-2.04463
-0.973543
-0.563181
-0.357847
-0.240147
-0.17012
-0.123784
-0.0874823
-0.0535114
-0.0166557
0.0276594
0.0846061
0.161728
0.27241
0.442098
0.718218
1.22571
2.41103
4.84853
)
;

boundaryField
{
    movingWall
    {
        type            zeroGradient;
    }
    fixedWalls
    {
        type            zeroGradient;
    }
    frontAndBack
    {
        type            empty;
    }
}


// ************************************************************************* //
