/*--------------------------------*- C++ -*----------------------------------*\
| =========                 |                                                 |
| \\      /  F ield         | OpenFOAM: The Open Source CFD Toolbox           |
|  \\    /   O peration     | Version:  2.4.0                                 |
|   \\  /    A nd           | Web:      www.OpenFOAM.org                      |
|    \\/     M anipulation  |                                                 |
\*---------------------------------------------------------------------------*/
FoamFile
{
    version     2.0;
    format      ascii;
    class       volScalarField;
    location    "1.5";
    object      p;
}
// * * * * * * * * * * * * * * * * * * * * * * * * * * * * * * * * * * * * * //

dimensions      [0 2 -2 0 0 0 0];

internalField   nonuniform List<scalar> 
400
(
2.79789e-06
-0.00582523
-0.0129633
-0.0184158
-0.0204335
-0.0182399
-0.0117754
-0.00148513
0.011836
0.0271479
0.0432432
0.058822
0.0725777
0.0833077
0.0900521
0.0922663
0.090025
0.084243
0.0768797
0.0710661
0.00578084
-0.000218495
-0.00580454
-0.00954341
-0.0106
-0.00843398
-0.00297128
0.00547278
0.0163016
0.0287105
0.0417486
0.0543849
0.0655854
0.074409
0.0801194
0.0823149
0.0810764
0.0770539
0.0712731
0.0653167
0.0133349
0.00503329
-0.000995904
-0.00442391
-0.00527394
-0.00326513
0.00160101
0.0090262
0.0185007
0.029348
0.0407642
0.0518685
0.0617675
0.0696353
0.074806
0.0768771
0.0758407
0.0720849
0.0658044
0.0575343
0.0201392
0.0086955
0.00122524
-0.0026693
-0.00372306
-0.00188645
0.00272997
0.00978317
0.018779
0.0290937
0.0399907
0.0506529
0.0602318
0.0679149
0.0730021
0.0750004
0.0737647
0.069455
0.0616018
0.0501012
0.0245017
0.00977262
0.000589133
-0.00398767
-0.0053031
-0.00350837
0.00117352
0.00833319
0.0174605
0.0279477
0.0390837
0.0500687
0.0600477
0.0681639
0.0736252
0.0757965
0.0743677
0.0692885
0.0595243
0.0445357
0.0251776
0.00714952
-0.00380269
-0.00905796
-0.010513
-0.00850091
-0.00335789
0.00442818
0.014312
0.0256776
0.0378124
0.049902
0.0610469
0.070302
0.0767335
0.0795156
0.0781376
0.0723322
0.0605379
0.0418886
0.0210931
-0.00026291
-0.0129352
-0.0187101
-0.0200307
-0.0174148
-0.0113193
-0.00232078
0.00898918
0.0219748
0.0359082
0.049943
0.0631109
0.0743441
0.0825207
0.0865683
0.0857194
0.0794458
0.065619
0.0430703
0.0111423
-0.0136188
-0.0278758
-0.0338551
-0.0346044
-0.0308584
-0.0232137
-0.0123461
0.00110376
0.0164827
0.0330512
0.0499322
0.066082
0.0802886
0.0911995
0.0974288
0.0978691
0.0916348
0.075895
0.0491151
-0.00596781
-0.0342671
-0.0498708
-0.0555494
-0.055091
-0.0495155
-0.0395944
-0.0261142
-0.00975808
0.00882192
0.0288998
0.0495922
0.0697962
0.0881533
0.103046
0.1127
0.115549
0.110191
0.092833
0.0614101
-0.031858
-0.0638769
-0.0804177
-0.085008
-0.082421
-0.0740793
-0.0609818
-0.0440375
-0.0239524
-0.00133786
0.0231445
0.0486599
0.0740944
0.0979711
0.118395
0.133125
0.139987
0.136817
0.11844
0.0819327
-0.0686683
-0.104604
-0.121345
-0.123591
-0.117516
-0.105128
-0.0877192
-0.0663265
-0.0416379
-0.0141565
0.0156046
0.0469522
0.0788547
0.109792
0.137623
0.159585
0.172726
0.173777
0.15552
0.11357
-0.119403
-0.159358
-0.174916
-0.172758
-0.161149
-0.14293
-0.11976
-0.0927779
-0.0625783
-0.0294485
0.0063723
0.0444727
0.0840543
0.123702
0.161135
0.193085
0.215667
0.224076
0.20805
0.160632
-0.188629
-0.232243
-0.243939
-0.233948
-0.213695
-0.187155
-0.156373
-0.122502
-0.0858986
-0.0464729
-0.00401512
0.0415382
0.0898415
0.139829
0.189318
0.234689
0.271074
0.291664
0.281742
0.229775
-0.283975
-0.329305
-0.331832
-0.30828
-0.274709
-0.23644
-0.195765
-0.15361
-0.10984
-0.0637455
-0.0144382
0.0388631
0.096554
0.158276
0.222374
0.285288
0.341397
0.381575
0.384914
0.331834
-0.419319
-0.459671
-0.44235
-0.395792
-0.342129
-0.287739
-0.234615
-0.182929
-0.131609
-0.0789847
-0.0232138
0.0374755
0.104553
0.178838
0.259861
0.34497
0.428616
0.4997
0.529675
0.485392
-0.620531
-0.636743
-0.578676
-0.494192
-0.41124
-0.335657
-0.26778
-0.205977
-0.147536
-0.0893822
-0.0284253
0.038349
0.113808
0.200472
0.299976
0.412026
0.53303
0.651776
0.732772
0.722396
-0.935923
-0.878514
-0.74174
-0.597947
-0.474392
-0.372658
-0.288867
-0.217761
-0.153952
-0.0924627
-0.0287161
0.0416968
0.123265
0.220719
0.338927
0.482156
0.651998
0.841343
1.01527
1.0975
-1.47642
-1.20663
-0.920502
-0.691386
-0.517303
-0.387542
-0.29006
-0.213336
-0.148122
-0.0872141
-0.0245763
0.0454588
0.128939
0.233072
0.367104
0.542679
0.771294
1.05932
1.40329
1.73014
-2.53965
-1.63055
-1.04444
-0.710957
-0.495749
-0.352091
-0.254529
-0.183582
-0.126168
-0.0735937
-0.0192677
0.0427882
0.119214
0.218784
0.354813
0.547985
0.826394
1.23658
1.91168
2.92419
-4.36666
-2.04463
-0.973541
-0.563179
-0.357844
-0.240145
-0.170118
-0.123781
-0.0874798
-0.0535089
-0.0166532
0.0276619
0.0846087
0.161731
0.272412
0.4421
0.71822
1.22571
2.41104
4.84853
)
;

boundaryField
{
    movingWall
    {
        type            zeroGradient;
    }
    fixedWalls
    {
        type            zeroGradient;
    }
    frontAndBack
    {
        type            empty;
    }
}


// ************************************************************************* //
