/*--------------------------------*- C++ -*----------------------------------*\
| =========                 |                                                 |
| \\      /  F ield         | OpenFOAM: The Open Source CFD Toolbox           |
|  \\    /   O peration     | Version:  2.4.0                                 |
|   \\  /    A nd           | Web:      www.OpenFOAM.org                      |
|    \\/     M anipulation  |                                                 |
\*---------------------------------------------------------------------------*/
FoamFile
{
    version     2.0;
    format      ascii;
    class       volScalarField;
    location    "1.1";
    object      p;
}
// * * * * * * * * * * * * * * * * * * * * * * * * * * * * * * * * * * * * * //

dimensions      [0 2 -2 0 0 0 0];

internalField   nonuniform List<scalar> 
400
(
3.32216e-06
-0.00582435
-0.0129624
-0.0184148
-0.0204325
-0.0182389
-0.0117744
-0.00148417
0.0118369
0.0271488
0.0432442
0.058823
0.0725788
0.0833087
0.0900531
0.0922672
0.090026
0.0842439
0.0768806
0.071067
0.00578174
-0.000217557
-0.0058036
-0.00954246
-0.0105991
-0.00843294
-0.00297023
0.00547381
0.0163026
0.0287114
0.0417495
0.0543858
0.0655864
0.0744101
0.0801205
0.082316
0.0810774
0.0770549
0.0712741
0.0653177
0.0133359
0.00503427
-0.000994951
-0.00442298
-0.005273
-0.00326414
0.00160206
0.00902728
0.0185018
0.029349
0.0407652
0.0518694
0.0617684
0.0696363
0.0748071
0.0768782
0.0758417
0.0720859
0.0658054
0.0575352
0.0201402
0.00869652
0.00122624
-0.00266835
-0.00372215
-0.00188551
0.00273097
0.00978423
0.0187801
0.0290947
0.0399917
0.0506538
0.0602327
0.0679158
0.0730031
0.0750015
0.0737658
0.069456
0.0616028
0.0501022
0.0245027
0.00977365
0.000590177
-0.00398666
-0.00530216
-0.00350747
0.00117445
0.00833419
0.0174616
0.0279488
0.0390847
0.0500697
0.0600487
0.0681648
0.0736261
0.0757975
0.0743688
0.0692896
0.0595253
0.0445367
0.0251785
0.00715053
-0.00380163
-0.0090569
-0.010512
-0.00849997
-0.003357
0.0044291
0.014313
0.0256786
0.0378135
0.0499031
0.0610479
0.0703029
0.0767344
0.0795166
0.0781386
0.0723332
0.0605389
0.0418896
0.0210941
-0.000261947
-0.0129342
-0.018709
-0.0200296
-0.0174138
-0.0113184
-0.0023199
0.0089901
0.0219758
0.0359093
0.0499441
0.0631119
0.0743451
0.0825216
0.0865692
0.0857204
0.0794467
0.06562
0.0430713
0.0111433
-0.0136179
-0.0278748
-0.033854
-0.0346033
-0.0308573
-0.0232127
-0.0123452
0.00110465
0.0164836
0.0330522
0.0499333
0.0660831
0.0802897
0.0912005
0.0974298
0.09787
0.0916357
0.075896
0.0491161
-0.00596679
-0.0342662
-0.0498699
-0.0555485
-0.05509
-0.0495144
-0.0395933
-0.0261132
-0.00975715
0.00882281
0.0289007
0.0495932
0.0697972
0.0881544
0.103047
0.112701
0.11555
0.110192
0.092834
0.0614111
-0.0318569
-0.0638759
-0.0804168
-0.0850071
-0.08242
-0.0740782
-0.0609807
-0.0440365
-0.0239514
-0.00133692
0.0231455
0.0486608
0.0740954
0.0979721
0.118396
0.133126
0.139988
0.136818
0.118441
0.0819336
-0.0686672
-0.104603
-0.121344
-0.12359
-0.117515
-0.105127
-0.0877182
-0.0663254
-0.0416369
-0.0141555
0.0156056
0.0469532
0.0788557
0.109793
0.137624
0.159586
0.172727
0.173778
0.155521
0.113571
-0.119402
-0.159357
-0.174915
-0.172757
-0.161148
-0.142929
-0.119759
-0.0927768
-0.0625772
-0.0294474
0.00637333
0.0444737
0.0840552
0.123703
0.161136
0.193086
0.215668
0.224077
0.208051
0.160633
-0.188628
-0.232242
-0.243938
-0.233947
-0.213694
-0.187154
-0.156372
-0.122501
-0.0858976
-0.0464718
-0.00401405
0.0415392
0.0898425
0.13983
0.189319
0.23469
0.271075
0.291665
0.281743
0.229776
-0.283974
-0.329304
-0.331831
-0.308279
-0.274708
-0.236439
-0.195764
-0.153609
-0.109839
-0.0637445
-0.0144372
0.0388642
0.096555
0.158277
0.222375
0.285289
0.341398
0.381576
0.384915
0.331835
-0.419318
-0.45967
-0.442349
-0.395791
-0.342128
-0.287738
-0.234614
-0.182929
-0.131608
-0.0789838
-0.0232128
0.0374765
0.104554
0.178839
0.259862
0.344971
0.428617
0.499701
0.529676
0.485393
-0.62053
-0.636742
-0.578675
-0.494191
-0.411239
-0.335656
-0.267778
-0.205976
-0.147535
-0.0893812
-0.0284243
0.03835
0.113809
0.200473
0.299977
0.412027
0.533031
0.651777
0.732773
0.722397
-0.935922
-0.878513
-0.741739
-0.597946
-0.474391
-0.372657
-0.288866
-0.21776
-0.153951
-0.0924617
-0.0287151
0.0416978
0.123266
0.22072
0.338928
0.482157
0.651999
0.841344
1.01527
1.09751
-1.47642
-1.20663
-0.920501
-0.691385
-0.517302
-0.387541
-0.290059
-0.213335
-0.148121
-0.0872131
-0.0245752
0.0454598
0.12894
0.233073
0.367105
0.54268
0.771295
1.05932
1.40329
1.73014
-2.53965
-1.63055
-1.04444
-0.710956
-0.495748
-0.352091
-0.254528
-0.183581
-0.126167
-0.0735927
-0.0192667
0.0427892
0.119215
0.218785
0.354814
0.547986
0.826395
1.23658
1.91168
2.9242
-4.36666
-2.04463
-0.973539
-0.563178
-0.357843
-0.240144
-0.170117
-0.12378
-0.0874788
-0.0535079
-0.0166522
0.0276629
0.0846097
0.161732
0.272413
0.442101
0.718221
1.22571
2.41104
4.84853
)
;

boundaryField
{
    movingWall
    {
        type            zeroGradient;
    }
    fixedWalls
    {
        type            zeroGradient;
    }
    frontAndBack
    {
        type            empty;
    }
}


// ************************************************************************* //
