/*--------------------------------*- C++ -*----------------------------------*\
| =========                 |                                                 |
| \\      /  F ield         | OpenFOAM: The Open Source CFD Toolbox           |
|  \\    /   O peration     | Version:  2.4.0                                 |
|   \\  /    A nd           | Web:      www.OpenFOAM.org                      |
|    \\/     M anipulation  |                                                 |
\*---------------------------------------------------------------------------*/
FoamFile
{
    version     2.0;
    format      ascii;
    class       volScalarField;
    location    "3";
    object      p;
}
// * * * * * * * * * * * * * * * * * * * * * * * * * * * * * * * * * * * * * //

dimensions      [0 2 -2 0 0 0 0];

internalField   nonuniform List<scalar> 
400
(
1.51833e-06
-0.00582741
-0.0129657
-0.0184182
-0.0204359
-0.0182423
-0.0117778
-0.00148765
0.0118335
0.0271454
0.0432409
0.0588197
0.0725754
0.0833053
0.0900496
0.0922637
0.0900225
0.0842405
0.0768773
0.0710637
0.00577868
-0.000220837
-0.00580694
-0.0095458
-0.0106024
-0.00843631
-0.00297365
0.00547034
0.0162991
0.0287079
0.0417461
0.0543825
0.0655831
0.0744067
0.080117
0.0823125
0.0810739
0.0770514
0.0712707
0.0653144
0.0133326
0.00503091
-0.000998338
-0.00442636
-0.00527635
-0.00326748
0.0015987
0.00902386
0.0184983
0.0293455
0.0407617
0.051866
0.061765
0.069633
0.0748037
0.0768747
0.0758382
0.0720824
0.0658019
0.0575319
0.0201368
0.00869314
0.00122282
-0.00267179
-0.00372555
-0.00188886
0.00272765
0.00978088
0.0187766
0.0290913
0.0399882
0.0506503
0.0602293
0.0679125
0.0729998
0.0749981
0.0737623
0.0694526
0.0615993
0.0500988
0.0244993
0.00977029
0.000586759
-0.00399012
-0.00530563
-0.00351087
0.00117111
0.00833088
0.0174583
0.0279453
0.0390812
0.0500662
0.0600452
0.0681614
0.0736228
0.0757942
0.0743654
0.0692862
0.0595218
0.0445333
0.0251751
0.00714718
-0.00380501
-0.00906034
-0.0105155
-0.00850345
-0.00336041
0.00442576
0.0143097
0.0256753
0.0378101
0.0498996
0.0610444
0.0702994
0.076731
0.0795132
0.0781353
0.0723299
0.0605355
0.0418862
0.0210906
-0.00026531
-0.0129375
-0.0187124
-0.020033
-0.0174173
-0.0113219
-0.00232331
0.00898677
0.0219725
0.035906
0.0499407
0.0631085
0.0743416
0.0825182
0.0865658
0.085717
0.0794434
0.0656166
0.0430679
0.0111398
-0.0136213
-0.0278781
-0.0338573
-0.0346067
-0.0308608
-0.0232163
-0.0123487
0.00110123
0.0164802
0.0330489
0.04993
0.0660797
0.0802862
0.091197
0.0974263
0.0978666
0.0916323
0.0758926
0.0491127
-0.0059703
-0.0342697
-0.0498733
-0.0555518
-0.0550933
-0.0495178
-0.0395968
-0.0261168
-0.00976065
0.00881939
0.0288974
0.0495899
0.0697939
0.088151
0.103044
0.112698
0.115547
0.110188
0.0928306
0.0614077
-0.0318604
-0.0638794
-0.0804202
-0.0850104
-0.0824233
-0.0740815
-0.0609841
-0.04404
-0.023955
-0.00134042
0.023142
0.0486574
0.074092
0.0979687
0.118392
0.133122
0.139985
0.136814
0.118437
0.0819302
-0.0686706
-0.104607
-0.121348
-0.123593
-0.117519
-0.10513
-0.0877215
-0.0663288
-0.0416403
-0.014159
0.0156021
0.0469497
0.0788523
0.10979
0.13762
0.159582
0.172723
0.173775
0.155517
0.113567
-0.119406
-0.15936
-0.174918
-0.17276
-0.161151
-0.142932
-0.119762
-0.0927802
-0.0625806
-0.0294509
0.00636983
0.0444702
0.0840518
0.1237
0.161133
0.193083
0.215665
0.224074
0.208047
0.160629
-0.188631
-0.232245
-0.243942
-0.233951
-0.213697
-0.187157
-0.156375
-0.122504
-0.0859009
-0.0464752
-0.00401749
0.0415358
0.089839
0.139826
0.189316
0.234686
0.271071
0.291661
0.28174
0.229773
-0.283977
-0.329307
-0.331834
-0.308283
-0.274711
-0.236442
-0.195767
-0.153613
-0.109843
-0.0637478
-0.0144405
0.0388607
0.0965516
0.158274
0.222371
0.285285
0.341394
0.381572
0.384911
0.331831
-0.419321
-0.459673
-0.442353
-0.395794
-0.342131
-0.287742
-0.234618
-0.182932
-0.131612
-0.0789871
-0.0232162
0.0374731
0.104551
0.178836
0.259859
0.344968
0.428614
0.499698
0.529673
0.485389
-0.620534
-0.636746
-0.578679
-0.494195
-0.411242
-0.33566
-0.267782
-0.205979
-0.147538
-0.0893846
-0.0284277
0.0383466
0.113805
0.20047
0.299973
0.412023
0.533028
0.651773
0.73277
0.722394
-0.935925
-0.878516
-0.741743
-0.59795
-0.474394
-0.37266
-0.28887
-0.217764
-0.153955
-0.0924652
-0.0287186
0.0416944
0.123262
0.220717
0.338925
0.482153
0.651995
0.84134
1.01527
1.0975
-1.47642
-1.20663
-0.920504
-0.691389
-0.517306
-0.387545
-0.290062
-0.213338
-0.148125
-0.0872165
-0.0245787
0.0454564
0.128936
0.23307
0.367102
0.542677
0.771292
1.05932
1.40329
1.73014
-2.53965
-1.63055
-1.04444
-0.71096
-0.495751
-0.352094
-0.254531
-0.183584
-0.12617
-0.0735961
-0.0192701
0.0427858
0.119211
0.218781
0.354811
0.547983
0.826392
1.23658
1.91168
2.92419
-4.36667
-2.04463
-0.973543
-0.563181
-0.357847
-0.240147
-0.17012
-0.123784
-0.0874822
-0.0535113
-0.0166556
0.0276595
0.0846063
0.161728
0.27241
0.442098
0.718218
1.22571
2.41103
4.84853
)
;

boundaryField
{
    movingWall
    {
        type            zeroGradient;
    }
    fixedWalls
    {
        type            zeroGradient;
    }
    frontAndBack
    {
        type            empty;
    }
}


// ************************************************************************* //
