/*--------------------------------*- C++ -*----------------------------------*\
| =========                 |                                                 |
| \\      /  F ield         | OpenFOAM: The Open Source CFD Toolbox           |
|  \\    /   O peration     | Version:  2.4.0                                 |
|   \\  /    A nd           | Web:      www.OpenFOAM.org                      |
|    \\/     M anipulation  |                                                 |
\*---------------------------------------------------------------------------*/
FoamFile
{
    version     2.0;
    format      ascii;
    class       volScalarField;
    location    "4.6";
    object      p;
}
// * * * * * * * * * * * * * * * * * * * * * * * * * * * * * * * * * * * * * //

dimensions      [0 2 -2 0 0 0 0];

internalField   nonuniform List<scalar> 
400
(
8.13009e-07
-0.0058286
-0.012967
-0.0184196
-0.0204373
-0.0182437
-0.0117791
-0.0014889
0.0118322
0.0271441
0.0432394
0.0588182
0.072574
0.0833039
0.0900483
0.0922625
0.0900213
0.0842392
0.0768759
0.0710623
0.00577748
-0.000222087
-0.00580822
-0.00954712
-0.0106038
-0.00843772
-0.00297503
0.00546902
0.0162978
0.0287067
0.0417448
0.0543811
0.0655817
0.0744052
0.0801157
0.0823112
0.0810726
0.0770501
0.0712693
0.065313
0.0133313
0.00502962
-0.000999595
-0.00442763
-0.00527767
-0.00326887
0.00159727
0.00902246
0.018497
0.0293442
0.0407605
0.0518648
0.0617637
0.0696316
0.0748023
0.0768734
0.0758369
0.0720811
0.0658006
0.0575305
0.0201354
0.0086918
0.00122153
-0.00267303
-0.00372681
-0.0018902
0.00272623
0.00977942
0.0187752
0.0290899
0.039987
0.0506491
0.0602281
0.0679111
0.0729983
0.0749967
0.073761
0.0694512
0.061598
0.0500975
0.024498
0.00976889
0.000585408
-0.0039914
-0.00530685
-0.00351213
0.00116977
0.00832944
0.0174568
0.0279439
0.0390799
0.0500649
0.060044
0.0681602
0.0736214
0.0757928
0.074364
0.0692848
0.0595205
0.044532
0.0251738
0.00714577
-0.00380643
-0.0090617
-0.0105167
-0.00850467
-0.00336165
0.00442442
0.0143082
0.0256738
0.0378087
0.0498982
0.0610431
0.0702982
0.0767297
0.0795119
0.0781339
0.0723285
0.0605341
0.0418848
0.0210893
-0.000266675
-0.012939
-0.0187139
-0.0200344
-0.0174185
-0.0113231
-0.00232455
0.00898542
0.0219711
0.0359045
0.0499392
0.0631071
0.0743403
0.0825169
0.0865645
0.0857157
0.079442
0.0656152
0.0430665
0.0111386
-0.0136226
-0.0278795
-0.0338588
-0.0346081
-0.0308621
-0.0232175
-0.0123499
0.00109999
0.0164789
0.0330475
0.0499285
0.0660783
0.0802849
0.0911957
0.0974251
0.0978653
0.091631
0.0758912
0.0491113
-0.00597158
-0.0342709
-0.0498746
-0.0555532
-0.0550948
-0.0495192
-0.0395982
-0.026118
-0.00976185
0.00881815
0.028896
0.0495885
0.0697924
0.0881495
0.103043
0.112696
0.115546
0.110187
0.0928293
0.0614064
-0.0318617
-0.0638807
-0.0804215
-0.0850118
-0.0824248
-0.074083
-0.0609856
-0.0440413
-0.0239562
-0.00134163
0.0231408
0.0486561
0.0740907
0.0979673
0.118391
0.133121
0.139984
0.136813
0.118436
0.0819289
-0.0686721
-0.104608
-0.121349
-0.123595
-0.11752
-0.105131
-0.087723
-0.0663302
-0.0416417
-0.0141603
0.0156009
0.0469485
0.078851
0.109789
0.137619
0.159581
0.172722
0.173773
0.155516
0.113566
-0.119407
-0.159362
-0.174919
-0.172761
-0.161152
-0.142933
-0.119764
-0.0927816
-0.0625821
-0.0294523
0.00636854
0.0444689
0.0840505
0.123698
0.161132
0.193081
0.215663
0.224072
0.208046
0.160628
-0.188633
-0.232246
-0.243943
-0.233952
-0.213699
-0.187159
-0.156377
-0.122506
-0.0859023
-0.0464766
-0.00401887
0.0415344
0.0898378
0.139825
0.189315
0.234685
0.27107
0.29166
0.281738
0.229771
-0.283979
-0.329309
-0.331836
-0.308284
-0.274712
-0.236444
-0.195768
-0.153614
-0.109844
-0.0637493
-0.014442
0.0388594
0.0965502
0.158273
0.22237
0.285284
0.341393
0.381571
0.38491
0.33183
-0.419322
-0.459675
-0.442354
-0.395796
-0.342133
-0.287743
-0.234619
-0.182933
-0.131613
-0.0789885
-0.0232176
0.0374717
0.10455
0.178834
0.259858
0.344967
0.428613
0.499696
0.529671
0.485388
-0.620535
-0.636747
-0.57868
-0.494196
-0.411244
-0.335661
-0.267783
-0.20598
-0.147539
-0.0893859
-0.0284291
0.0383453
0.113804
0.200469
0.299972
0.412022
0.533026
0.651772
0.732769
0.722392
-0.935927
-0.878518
-0.741744
-0.597951
-0.474395
-0.372662
-0.288871
-0.217765
-0.153956
-0.0924664
-0.0287199
0.0416931
0.123261
0.220715
0.338923
0.482152
0.651994
0.841339
1.01527
1.0975
-1.47643
-1.20663
-0.920505
-0.69139
-0.517307
-0.387546
-0.290063
-0.213339
-0.148126
-0.0872179
-0.02458
0.0454551
0.128935
0.233068
0.367101
0.542676
0.771291
1.05932
1.40328
1.73014
-2.53965
-1.63055
-1.04444
-0.710961
-0.495753
-0.352095
-0.254533
-0.183585
-0.126171
-0.0735975
-0.0192715
0.0427844
0.11921
0.21878
0.35481
0.547981
0.82639
1.23658
1.91167
2.92419
-4.36667
-2.04464
-0.973544
-0.563183
-0.357848
-0.240149
-0.170121
-0.123785
-0.0874835
-0.0535127
-0.0166569
0.0276581
0.0846049
0.161727
0.272409
0.442096
0.718216
1.22571
2.41103
4.84853
)
;

boundaryField
{
    movingWall
    {
        type            zeroGradient;
    }
    fixedWalls
    {
        type            zeroGradient;
    }
    frontAndBack
    {
        type            empty;
    }
}


// ************************************************************************* //
